# vtk DataFile Version 2.0
Packing Fraction Fields
ASCII
DATASET UNSTRUCTURED_GRID
POINTS 16641 double
0.125 -0.875 0.0
0.109375 -0.875 0.0
0.109375 -0.890625 0.0
0.125 -0.890625 0.0
0.09375 -0.875 0.0
0.09375 -0.890625 0.0
0.09375 -0.90625 0.0
0.109375 -0.90625 0.0
0.125 -0.90625 0.0
0.0625 -0.875 0.0
0.0625 -0.890625 0.0
0.078125 -0.890625 0.0
0.078125 -0.875 0.0
0.0625 -0.90625 0.0
0.078125 -0.90625 0.0
0.0625 -0.9375 0.0
0.078125 -0.9375 0.0
0.078125 -0.921875 0.0
0.0625 -0.921875 0.0
0.09375 -0.9375 0.0
0.09375 -0.921875 0.0
0.125 -0.9375 0.0
0.125 -0.921875 0.0
0.109375 -0.921875 0.0
0.109375 -0.9375 0.0
1.19015829389e-17 -0.875 0.0
8.23993651089e-18 -0.890625 0.0
0.015625 -0.890625 0.0
0.015625 -0.875 0.0
5.63785129692e-18 -0.90625 0.0
0.015625 -0.90625 0.0
0.03125 -0.90625 0.0
0.03125 -0.890625 0.0
0.03125 -0.875 0.0
1.30104260698e-18 -0.9375 0.0
0.015625 -0.9375 0.0
0.015625 -0.921875 0.0
2.92734586571e-18 -0.921875 0.0
0.03125 -0.9375 0.0
0.03125 -0.921875 0.0
0.046875 -0.921875 0.0
0.046875 -0.9375 0.0
0.046875 -0.90625 0.0
0.046875 -0.875 0.0
0.046875 -0.890625 0.0
0.0 -1.0 0.0
0.015625 -1.0 0.0
0.015625 -0.984375 0.0
0.0 -0.984375 0.0
0.03125 -1.0 0.0
0.03125 -0.984375 0.0
0.03125 -0.96875 0.0
0.015625 -0.96875 0.0
0.0 -0.96875 0.0
0.0625 -1.0 0.0
0.0625 -0.984375 0.0
0.046875 -0.984375 0.0
0.046875 -1.0 0.0
0.0625 -0.96875 0.0
0.046875 -0.96875 0.0
0.046875 -0.953125 0.0
0.0625 -0.953125 0.0
0.03125 -0.953125 0.0
0.0 -0.953125 0.0
0.015625 -0.953125 0.0
0.125 -1.0 0.0
0.125 -0.984375 0.0
0.109375 -0.984375 0.0
0.109375 -1.0 0.0
0.125 -0.96875 0.0
0.109375 -0.96875 0.0
0.09375 -0.96875 0.0
0.09375 -0.984375 0.0
0.09375 -1.0 0.0
0.109375 -0.953125 0.0
0.125 -0.953125 0.0
0.09375 -0.953125 0.0
0.078125 -0.953125 0.0
0.078125 -0.96875 0.0
0.078125 -1.0 0.0
0.078125 -0.984375 0.0
0.125 -0.75 0.0
0.109375 -0.75 0.0
0.109375 -0.765625 0.0
0.125 -0.765625 0.0
0.09375 -0.75 0.0
0.09375 -0.765625 0.0
0.09375 -0.78125 0.0
0.109375 -0.78125 0.0
0.125 -0.78125 0.0
0.0625 -0.75 0.0
0.0625 -0.765625 0.0
0.078125 -0.765625 0.0
0.078125 -0.75 0.0
0.0625 -0.78125 0.0
0.078125 -0.78125 0.0
0.0625 -0.8125 0.0
0.078125 -0.8125 0.0
0.078125 -0.796875 0.0
0.0625 -0.796875 0.0
0.09375 -0.8125 0.0
0.09375 -0.796875 0.0
0.125 -0.8125 0.0
0.125 -0.796875 0.0
0.109375 -0.796875 0.0
0.109375 -0.8125 0.0
1.43435019228e-17 -0.75 0.0
1.34441069388e-17 -0.765625 0.0
0.015625 -0.765625 0.0
0.015625 -0.75 0.0
1.34441069388e-17 -0.78125 0.0
0.015625 -0.78125 0.0
0.03125 -0.78125 0.0
0.03125 -0.765625 0.0
0.03125 -0.75 0.0
1.34441069388e-17 -0.8125 0.0
0.015625 -0.8125 0.0
0.015625 -0.796875 0.0
1.29020058526e-17 -0.796875 0.0
0.03125 -0.8125 0.0
0.03125 -0.796875 0.0
0.046875 -0.796875 0.0
0.046875 -0.8125 0.0
0.046875 -0.78125 0.0
0.046875 -0.75 0.0
0.046875 -0.765625 0.0
0.015625 -0.859375 0.0
1.29500557216e-17 -0.859375 0.0
0.03125 -0.859375 0.0
0.03125 -0.84375 0.0
0.015625 -0.84375 0.0
1.32506754149e-17 -0.84375 0.0
0.0625 -0.859375 0.0
0.046875 -0.859375 0.0
0.0625 -0.84375 0.0
0.046875 -0.84375 0.0
0.046875 -0.828125 0.0
0.0625 -0.828125 0.0
0.03125 -0.828125 0.0
1.34441069388e-17 -0.828125 0.0
0.015625 -0.828125 0.0
0.125 -0.859375 0.0
0.109375 -0.859375 0.0
0.125 -0.84375 0.0
0.109375 -0.84375 0.0
0.09375 -0.84375 0.0
0.09375 -0.859375 0.0
0.109375 -0.828125 0.0
0.125 -0.828125 0.0
0.09375 -0.828125 0.0
0.078125 -0.828125 0.0
0.078125 -0.84375 0.0
0.078125 -0.859375 0.0
0.125 -0.625 0.0
0.109375 -0.625 0.0
0.109375 -0.640625 0.0
0.125 -0.640625 0.0
0.09375 -0.625 0.0
0.09375 -0.640625 0.0
0.09375 -0.65625 0.0
0.109375 -0.65625 0.0
0.125 -0.65625 0.0
0.0625 -0.625 0.0
0.0625 -0.640625 0.0
0.078125 -0.640625 0.0
0.078125 -0.625 0.0
0.0625 -0.65625 0.0
0.078125 -0.65625 0.0
0.0625 -0.6875 0.0
0.078125 -0.6875 0.0
0.078125 -0.671875 0.0
0.0625 -0.671875 0.0
0.09375 -0.6875 0.0
0.09375 -0.671875 0.0
0.125 -0.6875 0.0
0.125 -0.671875 0.0
0.109375 -0.671875 0.0
0.109375 -0.6875 0.0
1.45603423573e-17 -0.625 0.0
1.51788304148e-17 -0.640625 0.0
0.015625 -0.640625 0.0
0.015625 -0.625 0.0
1.51788304148e-17 -0.65625 0.0
0.015625 -0.65625 0.0
0.03125 -0.65625 0.0
0.03125 -0.640625 0.0
0.03125 -0.625 0.0
1.43114686768e-17 -0.6875 0.0
0.015625 -0.6875 0.0
0.015625 -0.671875 0.0
1.48535697631e-17 -0.671875 0.0
0.03125 -0.6875 0.0
0.03125 -0.671875 0.0
0.046875 -0.671875 0.0
0.046875 -0.6875 0.0
0.046875 -0.65625 0.0
0.046875 -0.625 0.0
0.046875 -0.640625 0.0
0.015625 -0.734375 0.0
1.48615780746e-17 -0.734375 0.0
0.03125 -0.734375 0.0
0.03125 -0.71875 0.0
0.015625 -0.71875 0.0
1.45954557231e-17 -0.71875 0.0
0.0625 -0.734375 0.0
0.046875 -0.734375 0.0
0.0625 -0.71875 0.0
0.046875 -0.71875 0.0
0.046875 -0.703125 0.0
0.0625 -0.703125 0.0
0.03125 -0.703125 0.0
1.43114686768e-17 -0.703125 0.0
0.015625 -0.703125 0.0
0.125 -0.734375 0.0
0.109375 -0.734375 0.0
0.125 -0.71875 0.0
0.109375 -0.71875 0.0
0.09375 -0.71875 0.0
0.09375 -0.734375 0.0
0.109375 -0.703125 0.0
0.125 -0.703125 0.0
0.09375 -0.703125 0.0
0.078125 -0.703125 0.0
0.078125 -0.71875 0.0
0.078125 -0.734375 0.0
0.125 -0.5 0.0
0.109375 -0.5 0.0
0.109375 -0.515625 0.0
0.125 -0.515625 0.0
0.09375 -0.5 0.0
0.09375 -0.515625 0.0
0.09375 -0.53125 0.0
0.109375 -0.53125 0.0
0.125 -0.53125 0.0
0.0625 -0.5 0.0
0.0625 -0.515625 0.0
0.078125 -0.515625 0.0
0.078125 -0.5 0.0
0.0625 -0.53125 0.0
0.078125 -0.53125 0.0
0.0625 -0.5625 0.0
0.078125 -0.5625 0.0
0.078125 -0.546875 0.0
0.0625 -0.546875 0.0
0.09375 -0.5625 0.0
0.09375 -0.546875 0.0
0.125 -0.5625 0.0
0.125 -0.546875 0.0
0.109375 -0.546875 0.0
0.109375 -0.5625 0.0
1.49940232263e-17 -0.5 0.0
1.56125112838e-17 -0.515625 0.0
0.015625 -0.515625 0.0
0.015625 -0.5 0.0
1.51788304148e-17 -0.53125 0.0
0.015625 -0.53125 0.0
0.03125 -0.53125 0.0
0.03125 -0.515625 0.0
0.03125 -0.5 0.0
1.43114686768e-17 -0.5625 0.0
0.015625 -0.5625 0.0
0.015625 -0.546875 0.0
1.48535697631e-17 -0.546875 0.0
0.03125 -0.5625 0.0
0.03125 -0.546875 0.0
0.046875 -0.546875 0.0
0.046875 -0.5625 0.0
0.046875 -0.53125 0.0
0.046875 -0.5 0.0
0.046875 -0.515625 0.0
0.015625 -0.609375 0.0
1.49157881832e-17 -0.609375 0.0
0.03125 -0.609375 0.0
0.03125 -0.59375 0.0
0.015625 -0.59375 0.0
1.45954557231e-17 -0.59375 0.0
0.0625 -0.609375 0.0
0.046875 -0.609375 0.0
0.0625 -0.59375 0.0
0.046875 -0.59375 0.0
0.046875 -0.578125 0.0
0.0625 -0.578125 0.0
0.03125 -0.578125 0.0
1.43114686768e-17 -0.578125 0.0
0.015625 -0.578125 0.0
0.125 -0.609375 0.0
0.109375 -0.609375 0.0
0.125 -0.59375 0.0
0.109375 -0.59375 0.0
0.09375 -0.59375 0.0
0.09375 -0.609375 0.0
0.109375 -0.578125 0.0
0.125 -0.578125 0.0
0.09375 -0.578125 0.0
0.078125 -0.578125 0.0
0.078125 -0.59375 0.0
0.078125 -0.609375 0.0
0.125 -0.375 0.0
0.109375 -0.375 0.0
0.109375 -0.390625 0.0
0.125 -0.390625 0.0
0.09375 -0.375 0.0
0.09375 -0.390625 0.0
0.09375 -0.40625 0.0
0.109375 -0.40625 0.0
0.125 -0.40625 0.0
0.0625 -0.375 0.0
0.0625 -0.390625 0.0
0.078125 -0.390625 0.0
0.078125 -0.375 0.0
0.0625 -0.40625 0.0
0.078125 -0.40625 0.0
0.0625 -0.4375 0.0
0.078125 -0.4375 0.0
0.078125 -0.421875 0.0
0.0625 -0.421875 0.0
0.09375 -0.4375 0.0
0.09375 -0.421875 0.0
0.125 -0.4375 0.0
0.125 -0.421875 0.0
0.109375 -0.421875 0.0
0.109375 -0.4375 0.0
1.89513611559e-17 -0.375 0.0
1.77809156288e-17 -0.390625 0.0
0.015625 -0.390625 0.0
0.015625 -0.375 0.0
1.86482773668e-17 -0.40625 0.0
0.015625 -0.40625 0.0
0.03125 -0.40625 0.0
0.03125 -0.390625 0.0
0.03125 -0.375 0.0
1.64798730218e-17 -0.4375 0.0
0.015625 -0.4375 0.0
0.015625 -0.421875 0.0
1.66967134563e-17 -0.421875 0.0
0.03125 -0.4375 0.0
0.03125 -0.421875 0.0
0.046875 -0.421875 0.0
0.046875 -0.4375 0.0
0.046875 -0.40625 0.0
0.046875 -0.375 0.0
0.046875 -0.390625 0.0
0.015625 -0.484375 0.0
1.58915701384e-17 -0.484375 0.0
0.03125 -0.484375 0.0
0.03125 -0.46875 0.0
0.015625 -0.46875 0.0
1.64385994163e-17 -0.46875 0.0
0.0625 -0.484375 0.0
0.046875 -0.484375 0.0
0.0625 -0.46875 0.0
0.046875 -0.46875 0.0
0.046875 -0.453125 0.0
0.0625 -0.453125 0.0
0.03125 -0.453125 0.0
1.73472347598e-17 -0.453125 0.0
0.015625 -0.453125 0.0
0.125 -0.484375 0.0
0.109375 -0.484375 0.0
0.125 -0.46875 0.0
0.109375 -0.46875 0.0
0.09375 -0.46875 0.0
0.09375 -0.484375 0.0
0.109375 -0.453125 0.0
0.125 -0.453125 0.0
0.09375 -0.453125 0.0
0.078125 -0.453125 0.0
0.078125 -0.46875 0.0
0.078125 -0.484375 0.0
0.125 -0.25 0.0
0.109375 -0.25 0.0
0.109375 -0.265625 0.0
0.125 -0.265625 0.0
0.09375 -0.25 0.0
0.09375 -0.265625 0.0
0.09375 -0.28125 0.0
0.109375 -0.28125 0.0
0.125 -0.28125 0.0
0.0625 -0.25 0.0
0.0625 -0.265625 0.0
0.078125 -0.265625 0.0
0.078125 -0.25 0.0
0.0625 -0.28125 0.0
0.078125 -0.28125 0.0
0.0625 -0.3125 0.0
0.078125 -0.3125 0.0
0.078125 -0.296875 0.0
0.0625 -0.296875 0.0
0.09375 -0.3125 0.0
0.09375 -0.296875 0.0
0.125 -0.3125 0.0
0.125 -0.296875 0.0
0.109375 -0.296875 0.0
0.109375 -0.3125 0.0
2.12823958267e-17 -0.25 0.0
2.12503625807e-17 -0.265625 0.0
0.015625 -0.265625 0.0
0.015625 -0.25 0.0
2.12503625807e-17 -0.28125 0.0
0.015625 -0.28125 0.0
0.03125 -0.28125 0.0
0.03125 -0.265625 0.0
0.03125 -0.25 0.0
2.12503625807e-17 -0.3125 0.0
0.015625 -0.3125 0.0
0.015625 -0.296875 0.0
2.2226144536e-17 -0.296875 0.0
0.03125 -0.3125 0.0
0.03125 -0.296875 0.0
0.046875 -0.296875 0.0
0.046875 -0.3125 0.0
0.046875 -0.28125 0.0
0.046875 -0.25 0.0
0.046875 -0.265625 0.0
0.015625 -0.359375 0.0
1.86156280968e-17 -0.359375 0.0
0.03125 -0.359375 0.0
0.03125 -0.34375 0.0
0.015625 -0.34375 0.0
1.95421281351e-17 -0.34375 0.0
0.0625 -0.359375 0.0
0.046875 -0.359375 0.0
0.0625 -0.34375 0.0
0.046875 -0.34375 0.0
0.046875 -0.328125 0.0
0.0625 -0.328125 0.0
0.03125 -0.328125 0.0
2.03830008427e-17 -0.328125 0.0
0.015625 -0.328125 0.0
0.125 -0.359375 0.0
0.109375 -0.359375 0.0
0.125 -0.34375 0.0
0.109375 -0.34375 0.0
0.09375 -0.34375 0.0
0.09375 -0.359375 0.0
0.109375 -0.328125 0.0
0.125 -0.328125 0.0
0.09375 -0.328125 0.0
0.078125 -0.328125 0.0
0.078125 -0.34375 0.0
0.078125 -0.359375 0.0
0.125 -0.125 0.0
0.109375 -0.125 0.0
0.109375 -0.140625 0.0
0.125 -0.140625 0.0
0.09375 -0.125 0.0
0.09375 -0.140625 0.0
0.09375 -0.15625 0.0
0.109375 -0.15625 0.0
[...]
POINT_DATA 16641
SCALARS Radiance double
LOOKUP_TABLE default
-1.92007229034e-08
6.8291333446e-09
1.71346589599e-08
-1.04688324157e-08
1.03633957798e-08
2.1097917417e-08
-3.81099661916e-08
3.4142785705e-10
3.02196846667e-08
5.97486245628e-09
-2.92617800149e-08
-1.82266457548e-08
4.57159469375e-09
3.4842351965e-08
-2.08993414901e-08
6.39439400966e-08
4.2021594263e-08
-2.30522176913e-08
-1.99909137225e-08
-3.22547259984e-08
8.8881783564e-09
-1.17463768752e-08
1.20478696954e-08
3.77786520361e-08
-6.59381257506e-08
2.13419932273e-08
-3.07218000687e-08
-2.52697784907e-08
-7.24135601254e-11
2.74013942126e-08
-1.31514125349e-08
-2.887893001e-08
3.18031954942e-08
-2.14369209854e-08
5.27189368568e-08
-1.09686894243e-08
-1.09897753877e-08
-8.50638388837e-09
-6.97881926093e-08
1.683175999e-08
1.15039432448e-08
-1.17123401578e-08
2.20051404764e-08
-1.19029946219e-08
2.27436236417e-08
0.0
0.0
-2.54516877888e-08
-2.1183799276e-09
0.0
-3.0615547755e-08
-3.26175546825e-08
3.09633292702e-08
4.52931958505e-08
0.0
4.59746350038e-08
1.7671835957e-09
0.0
2.53072834504e-09
-4.5785170474e-08
2.82741011303e-08
1.41684249037e-08
1.27913702862e-08
-2.65728193349e-08
-1.77823483388e-08
0.0
8.23642788062e-09
-3.27853106952e-08
0.0
-5.14215536331e-08
-3.3309023668e-08
3.03546613986e-08
-3.63855854109e-08
0.0
1.50589939875e-08
4.77901830233e-08
-3.95027699779e-08
-2.72014176857e-08
4.60477053561e-08
0.0
2.29233919583e-08
-5.90121807689e-09
8.97060953265e-09
-2.17232558809e-08
-3.14951221047e-08
2.28879788921e-09
3.13236371933e-10
-2.64454422092e-08
7.07665943547e-09
2.63771205627e-08
-4.03949252578e-09
2.44678592875e-08
4.83365550976e-09
1.02974655795e-08
2.76293676313e-08
1.99444661004e-08
1.77367250358e-08
2.31156057122e-08
2.69941278701e-08
2.28295913212e-08
-2.77965923461e-08
9.69382795735e-09
4.45566073187e-08
-3.090126809e-08
-3.62700619236e-08
-2.8391681615e-09
1.66676591675e-08
4.50041199669e-09
-1.02253255002e-08
-7.4258826501e-11
8.42561283554e-09
-3.648515649e-09
-2.1484049874e-08
-2.65385538716e-08
-7.68520193216e-09
8.55324853017e-09
2.33935491258e-08
-1.40757877854e-08
7.33151806568e-09
-1.26224929621e-08
-2.95919759388e-08
-1.11197893943e-09
-3.25450136389e-08
-1.48501465372e-08
-1.25511680952e-08
7.05049633982e-09
1.68533637494e-08
-1.2879869575e-08
4.45233174262e-08
-7.66560536176e-09
5.02349307615e-09
-1.23639731408e-08
-6.65427372134e-08
-9.97027910894e-09
1.90835330856e-08
-1.88673198269e-08
-4.31690937071e-08
-2.16616181603e-08
-1.98895883204e-08
2.52932908762e-08
1.20834161338e-08
-1.99124526085e-08
2.05699939215e-08
1.45411227839e-09
-3.25628163365e-08
-1.57202995575e-08
5.63594529403e-08
-2.24632739394e-08
-4.75880576316e-08
5.82747662047e-08
4.85021384604e-08
2.83426785494e-08
-8.51723236062e-09
-5.02653313701e-08
-3.76527567745e-08
3.27966185682e-08
2.99750267242e-09
3.1909027176e-08
-3.10012294944e-08
2.3056021355e-08
-1.16690063071e-09
1.13968255116e-08
5.15705297235e-08
1.69403895434e-08
-3.05115258366e-08
3.65627586592e-08
-2.99040196279e-08
-8.39972599868e-09
7.06420779092e-09
-3.65406516021e-09
-1.55154100378e-08
2.56894149996e-08
-3.23306286886e-08
-1.50017125694e-08
3.19836512163e-08
-9.49100943651e-09
3.53920856338e-08
-4.83984169317e-08
9.85863227471e-08
5.76658094994e-08
6.70060568065e-08
1.03036675801e-07
7.95616043693e-08
7.20349286633e-08
3.71678456043e-08
9.70819646152e-08
7.1502804618e-08
9.18064764735e-10
-2.07215446602e-08
-2.00980235025e-08
2.46083405811e-08
5.34565099317e-09
-7.21791007901e-09
1.68115308617e-08
2.85253579878e-08
5.47792236736e-09
6.96105229599e-08
6.58930825204e-08
-1.33974174522e-08
-9.35236202232e-09
-1.42587601508e-08
-4.03688895383e-08
-2.23528472604e-08
3.02188624914e-08
2.54068028787e-08
1.73296940981e-08
1.45726144961e-08
-2.07443840109e-08
2.35098948391e-09
3.03301408483e-09
-1.53298536546e-08
2.09689266358e-08
-5.04190512394e-09
3.81274207226e-09
-1.65628294071e-08
-2.27989442205e-08
-4.68702271052e-08
2.30019156206e-09
-2.78583622141e-08
4.75870669378e-08
3.23791671401e-08
-1.7276941131e-08
-4.09080322073e-08
4.48361814233e-08
-1.79228289281e-08
1.21575003201e-07
-1.93512414384e-08
3.94974432827e-08
1.09600246064e-07
-3.13187428577e-07
2.67381528742e-08
1.00282060515e-07
1.66877019758e-07
1.48430615427e-07
-1.26308887844e-06
-6.32598613596e-07
-2.06449286844e-07
-6.78542289677e-07
-2.02678810987e-07
6.56860242589e-09
1.26220412543e-07
1.51377173277e-07
1.28242107121e-07
-2.7799376798e-08
1.63950287647e-07
1.99201519023e-07
8.93329829179e-10
1.13608530739e-07
1.49915766648e-07
1.11961665637e-07
-1.77051910304e-06
-2.32776737951e-06
-2.17583942845e-06
-2.40883922619e-06
-2.05563588441e-06
-1.53818162374e-06
-9.95878077568e-07
-1.72658323165e-06
-2.33272066328e-06
-8.20999515819e-07
-3.99117312823e-07
-9.04330742e-07
-1.39558286536e-06
-1.37058252623e-07
-4.66161534819e-07
-1.7218794032e-07
1.59132427803e-08
-5.7132716416e-07
-1.91165069827e-06
-1.14654368992e-06
1.24325233625e-07
9.10179620163e-08
1.21902143193e-07
1.33439776387e-07
7.83264456919e-08
-8.5361795892e-08
5.74993272783e-08
7.49880176834e-08
1.02107786467e-07
1.48567158431e-07
1.46166353765e-07
1.36984928882e-07
6.0328908968e-08
-3.54745481117e-07
-1.3622348623e-07
4.98786514875e-09
2.8690741174e-08
-1.5018496288e-08
4.4442014533e-08
6.35171397095e-08
2.41059812401e-08
3.77930251289e-08
5.23128156102e-08
7.13650055268e-08
1.31384392347e-07
3.79962290555e-08
6.04572332179e-08
-1.42031650892e-07
4.20600409737e-06
-4.5385541122e-07
-2.53708208835e-06
1.09950151928e-05
3.49891046752e-06
-7.46811079634e-07
-2.6474549938e-06
-3.17916185047e-06
2.96998591345e-05
1.81916290886e-05
9.77896509753e-06
1.98517995854e-05
8.64055987655e-06
2.86207236707e-06
-1.33416774458e-06
-2.69287916112e-06
-1.10744416355e-06
2.26970858331e-06
-2.91735766357e-06
-2.6993404355e-06
-1.78726961428e-06
-2.70478524142e-06
-3.03171013381e-06
-2.48436520925e-06
6.68484305779e-06
3.34676762141e-05
3.99445440502e-05
3.26022886164e-05
3.88439291492e-05
3.44485103812e-05
2.58889864895e-05
3.63008054328e-05
4.08463007902e-05
2.22645492047e-05
1.36810135301e-05
2.40251872606e-05
3.25637109984e-05
6.67026766345e-06
1.51495281655e-05
7.6617449712e-06
1.70901758951e-06
1.66415788707e-05
3.80553040223e-05
2.77539044712e-05
-1.69866957946e-06
3.49837762806e-07
-2.52511436951e-06
-1.62625617889e-06
6.74478463443e-07
4.88308311581e-06
-1.9798113162e-06
-2.44714507263e-06
-2.57050590644e-06
-2.54907504067e-06
-1.49042673957e-06
-2.5856256857e-06
1.12512284349e-06
1.23283779728e-05
5.73265130845e-06
-2.55794912224e-08
-3.92530866523e-07
-4.47672388767e-07
-9.86676431879e-07
-1.58889690462e-06
-8.56633312306e-07
-1.65325291837e-06
-1.05654264264e-06
-2.3209550347e-06
-2.76735425458e-06
-2.12280272474e-06
-1.43361015735e-06
-4.07065184178e-05
-0.000124239777688
-3.3132213999e-05
1.67460019747e-05
-0.000235269798842
-0.000112384019078
-2.60033865665e-05
2.01477738749e-05
4.2077601261e-05
-0.000473939249827
-0.000343419459765
-0.000219630706638
-0.000360868236108
-0.000204234987118
-0.000100993035527
-1.31576360737e-05
2.56970601562e-05
-1.93168677246e-05
-9.00474514692e-05
4.25697698265e-05
2.31208975647e-05
3.73704589771e-05
4.56151061937e-05
4.24273464412e-05
4.42993568856e-05
0.000280732054263
-0.000252692692254
-0.000477362043888
-0.000221499237752
-0.00048310092142
-0.000513747625746
-0.000442355828636
-0.000522675347459
-0.000469564208944
-0.000408579560294
-0.000290763079582
-0.00042571073165
-0.000503562620689
-0.000174516855187
-0.000308289800888
-0.000189198454582
-7.95702103969e-05
-0.000325867976282
-0.000530298993386
-0.000458430912209
2.4169742848e-06
-5.13623961687e-05
3.13815590779e-05
-2.31689118267e-06
-6.0225080422e-05
-0.000146412867496
3.97309517234e-05
4.15574294176e-05
4.21177160923e-05
2.98235232906e-05
-7.50119932117e-06
2.79578527368e-05
-6.96541746616e-05
-0.000273293688011
-0.00016024200654
5.03101422069e-06
1.2273193393e-05
1.3661716596e-05
2.33834750644e-05
3.35971691412e-05
2.15922426965e-05
3.54936977702e-05
2.52153862206e-05
4.28330176794e-05
4.24625819506e-05
4.13324717492e-05
3.16824644027e-05
0.000850749405822
0.00187577381767
0.000772748568886
6.44157449897e-05
0.00311091976766
0.00177271263271
0.000696447253269
1.67396690311e-05
-0.000379652381322
0.00534028153819
0.00426034760714
0.00299408747418
0.00437026159254
0.00287611558962
0.00167026290656
0.000549301256102
-7.19748934479e-05
0.000621913910034
0.0015686558913
-0.000417762847602
-2.87707654937e-05
-0.000528407500816
-0.000546810333836
-0.000399700421474
-0.000546500457806
-0.00343490742977
0.00195187957974
0.00466346818171
0.00170160881304
0.00476606090214
0.00557297671243
0.0051886368829
0.00558012462837
0.00455297236055
0.00501497116661
0.0039114808041
0.00510456156683
0.00555838991964
0.00263762877877
0.00403085137321
0.00275722371171
0.00146793610227
0.00414720910511
0.00557988958598
0.00526722093741
0.000344409570208
0.00117322600851
-0.000187777806968
0.000410469031093
0.00127004911196
0.00239687760501
-0.000536520770333
-0.000459727940202
-0.000447819444914
-0.000151569564126
0.000478810850999
-0.000112934949565
0.00136834075991
0.00378921586086
0.00251743825223
-0.000136509087347
-0.000251127834838
-0.000267181593131
-0.000395436324642
-0.000502835651785
-0.000378220130888
-0.000516034929728
-0.000412422670651
-0.000544640168793
-0.000433845730129
-0.000541302379541
-0.000488768218739
-0.00672994319195
-0.0152706754741
-0.00631355510722
-0.000207758365093
-0.0256399243696
-0.0147560394267
-0.00589783629399
7.94330215745e-05
0.00373954396948
-0.0468022893803
-0.0362229894689
-0.0250817220716
-0.0367447984341
-0.0245149792868
-0.0142376372954
-0.00506960506739
0.000640718690663
-0.00548310991579
-0.0137156707674
0.00403749945612
0.000362370809637
0.00557719875277
0.00547434491572
0.00389166843126
0.00550890230056
-0.0208321272243
-0.0441307703637
-0.0535440864947
-0.0436166193676
-0.0536896140042
-0.0530233326285
-0.0460096996998
-0.053194931177
-0.0533882021065
-0.0451554786067
-0.0345805066887
-0.0455905371184
-0.0528367916949
-0.0233557018631
-0.035141101826
-0.0239396141582
-0.0131903531395
-0.0356885034892
-0.0533522342619
-0.0464134807352
-0.00383999626206
-0.0115962707367
0.00144493790021
-0.00424769825344
-0.012130423967
-0.0221622895056
0.00557251390031
0.00443487273921
0.00430939522702
0.00118233487948
-0.00465770196295
0.00091413556068
-0.0126618578294
-0.034006490428
-0.0227632320827
0.00197929074526
0.00322651460464
0.0033407368609
0.00457990038544
0.00546970307323
0.00447680616592
0.00552616099678
0.00467943087457
0.00553689147031
0.00417685247374
0.00555812429295
0.00540775507714
-0.0141214097705
0.0263030519773
-0.0149403215236
-0.0399506909023
0.0831095125051
0.0252637130694
-0.0157649360261
-0.0404796114428
-0.0522631825586
0.244253204846
0.155152929904
0.0819627994929
0.156263158647
0.0807990383835
0.0242121234092
-0.0174312610284
-0.0415332756884
-0.0165952360869
0.0231480499835
-0.0526711706555
-0.0410072234573
-0.0482172374587
-0.0539428714673
-0.0524709664466
-0.0538491821547
0.668080325024
0.561632489878
0.451335914188
0.561335736764
0.451164505944
0.342892819758
0.242395583594
0.343497221442
0.451503120972
0.240467190205
0.151706477987
0.241440513642
0.3422761334
0.0784184091178
0.152875211937
0.0796177294594
0.0220712341297
0.154023809855
0.34408972294
0.243332971707
-0.0199734421217
0.0187613264021
-0.0430994781767
-0.0191203413521
0.0198781679327
0.0759635627368
-0.0534957920265
-0.0532224238917
-0.0530473725692
-0.0425796806071
-0.0182729662075
-0.0420574893763
0.0209813416129
0.150517035819
0.0772005510578
-0.0157814004824
-0.0261895690757
-0.0267307562987
-0.0377514129897
-0.0475369859672
-0.037254178349
-0.0478837098964
-0.0382366946631
-0.05374377432
-0.0528634562583
-0.0536261155152
-0.0471766700012
0.662608035632
0.758462408231
0.663258490603
0.559361863171
0.842634857132
0.75941604785
0.663917908604
0.559634234097
0.452420389995
0.966054231252
0.913459995727
0.84377031144
0.912290194953
0.844921485391
0.760383083951
0.66526470324
0.56018780969
0.664586552715
0.761364056912
0.45213080301
0.559909437639
0.247772714031
0.346884410505
0.452277570812
0.346346872022
1.04507857242
1.04058128643
1.02846529789
1.04055011978
1.02891177709
1.00570368056
0.968171060836
1.00489674526
1.02802331315
0.97034000914
0.917063101413
0.969249020018
1.00651959423
0.847272268777
0.915846293058
0.84608866278
0.762359237134
0.914645338982
1.00409883815
0.967106172055
0.66736019223
0.765434534621
0.561043155295
0.666651154408
0.764394033755
0.849690101908
0.344670643158
0.451666172915
0.451825113906
0.560754454421
0.665952799376
0.560469412969
0.763369082401
0.918295957758
0.848472606144
0.0273303947263
0.0842396432474
0.085353659316
0.158429089751
0.246044288832
0.157355036911
0.246916147874
0.159485848528
0.345798949942
0.451979965431
0.345240295497
0.245156808303
1.04797238619
1.05079504915
1.04762630298
1.04033448754
1.05155144423
1.05012098401
1.04727575728
1.04036472068
1.02547098715
1.0536601148
1.05120992264
1.05064322735
1.05222295371
1.04972230532
1.04943796295
1.04656118045
1.04042585248
1.04692069379
1.0487460694
1.02630225389
1.04039516465
0.961975201025
1.00024738164
1.02588414838
1.00099915469
1.04007599089
1.05176698511
1.05528285168
1.05178233117
1.05482984658
1.05385078065
1.05170776206
1.05463745846
1.05572336309
1.04968884013
1.04807887814
1.05070668941
1.05304823285
1.04784272332
1.04913786897
1.04878882082
1.04804532084
1.05018159166
1.0554084135
1.05269215141
1.0454558553
1.04589090957
1.04051889916
1.04582869476
1.04661766209
1.045913252
1.00331015009
1.02758587929
1.02715315817
1.04048780364
1.04619713744
1.04045672324
1.04733587975
1.04700446485
1.0468841592
0.757521973775
0.841514872843
0.840409954668
0.909995976224
0.963989127754
0.911135545167
0.96297578681
0.908871215125
1.00176022525
1.02672530189
1.00253054991
0.965015214711
1.03655519879
1.01022606605
1.03698690446
1.05173181905
0.969996197895
1.0110299113
1.03742127492
1.05175369044
1.05812585976
0.842095424611
0.915317748738
0.971080587642
0.914092570587
0.972181084059
1.01184373554
1.03829762825
1.05178398069
1.03785823099
1.01266740753
1.05736860468
1.05177122994
1.05737009863
1.05903814845
1.0577524011
1.05834133462
0.439150661884
0.5492443165
0.656746525627
0.549043817747
0.657405118707
0.757183017029
0.844510174933
0.75616895206
0.656098819243
0.847010308834
0.919115597646
0.84574924106
0.758215145826
0.974431651019
0.91782877129
0.973298034443
1.01350117886
0.916562944091
0.755172568438
0.843292418872
1.03962863947
1.01606284231
1.0517913118
1.03918302952
1.01519885458
0.976750160042
1.05616400579
1.0561518896
1.05656865057
1.05179436212
1.03873924702
1.05179184489
1.01434495204
0.920424084583
0.97558229822
1.05146016401
1.0524470343
1.05332987105
1.05420319231
1.05554712809
1.05322070434
1.05646652448
1.05517056039
1.0576301519
1.05697415028
1.05690451551
1.05461167204
0.441123893687
0.337153796994
0.440898956768
0.547690211678
0.240424017049
0.336550700332
0.440668300496
0.547878274971
0.652425135543
0.0840319730979
0.153996117168
0.239530187263
0.155053977776
0.238620128537
0.335935534877
0.440189096689
0.548259744397
0.440431815047
0.335307726472
0.653611003616
0.548068173499
0.837504183052
0.750437412195
0.653013335024
0.751352938802
-0.0455090230205
-0.0345453979411
-0.0107596200818
-0.0341079025347
-0.0114942042355
0.0270282396228
0.0818617927139
0.0279974299036
-0.010028242793
0.0796302743341
0.150716505872
0.0807539362936
0.0260488716802
0.236748807049
0.151827908776
0.237693183434
0.334666927785
0.152920908645
0.0289566922583
0.082954372117
0.439420966583
0.332660888341
0.548845208416
0.439683964664
0.3333440305
0.234805342959
0.754193191573
0.65546172813
0.654834899323
0.54864827738
0.439939907793
0.548453188344
0.334012473924
0.149586322211
0.235786375562
1.00943193209
0.968927610252
0.967874618321
0.91170078829
0.83976141971
0.912887152719
0.838623503445
0.91053325215
0.752283771419
0.654218090676
0.753230485673
0.840918572333
-0.0442076207393
-0.0479103908844
-0.0443933399436
-0.0309730312927
-0.0444623135084
-0.0478446296031
-0.0445731676593
-0.0314265991945
-0.00571518560501
-0.0269256523194
-0.0362528686804
-0.0441953866812
-0.0366504687995
-0.043918138025
-0.0477699424078
-0.0449138845219
-0.0323291243785
-0.0447467882588
-0.0476857888658
-0.00713800992135
-0.0318787768035
0.0881997546354
0.0336091283924
-0.00642464949124
0.032697394551
0.00181498198132
-0.0021335296682
-0.00843430066957
-0.00239936649726
-0.0080672913989
-0.0163330949875
-0.0260153201808
-0.0167726252017
-0.00880054278002
-0.0250762014191
-0.0350021154311
-0.0255492712201
-0.01588973423
-0.0433317122966
-0.035428769941
-0.0436303436323
-0.0475919227011
-0.0358456049374
-0.0172081791961
-0.0264741133839
-0.0453719758318
-0.0472479923606
-0.0336671813011
-0.0452269038413
-0.0473733389356
-0.0427010591707
0.029906195183
-0.00930035097735
-0.00857596335221
-0.0332235891798
-0.0450740447393
-0.032777496633
-0.0474878611102
-0.0345655626248
-0.0430220981061
0.337745309954
0.241302105232
0.242165097945
0.157119936468
0.0861436734696
0.156095070303
0.0871784857523
0.158129046455
0.031776451987
-0.00785516447693
0.0308460739747
0.08509497209
0.000470542319546
0.0034519910329
0.000642252542482
-0.00428039492995
0.00472399959085
0.00353452930638
0.000814364015835
-0.00401371568093
-0.0109592240104
0.00399660746873
0.00470191366748
0.00473256764494
0.00474521067543
0.00473852532168
0.00361554622432
0.00115642212707
-0.00347548036813
0.000985980143145
0.00369444052647
-0.0102505707957
-0.00374513030989
-0.0286560637252
-0.0193135765037
-0.010606787777
-0.0189034505436
0.000135532537437
0.00076980337245
0.00170545775208
0.000823478536974
0.00163378864837
0.00274126030078
0.00385103625728
0.00282188022207
0.00177617201472
0.00369600542986
0.00455459034272
0.00377462605737
0.00265918033698
0.00474144350048
0.00460665461096
0.00474158781914
0.00377065998398
0.00465576233666
0.00290071734473
0.00392506705743
0.00165474313644
0.00397951844493
-0.00266697877468
0.00149128154494
0.00391353147766
0.00473070734759
-0.0176393066628
-0.00916574750983
-0.00952947282041
-0.00293580896514
0.00132501753878
-0.00320553071287
0.00384384316605
0.00449945753296
0.00473789054978
-0.0479673820122
-0.0447191326777
-0.0449661777681
-0.0374172353434
-0.0278063702408
-0.0370386393999
-0.0282352473062
-0.0377864005638
-0.0184873607354
-0.00989123318249
-0.0180658732613
-0.0273698012361
0.00036575922983
-0.000168017198992
0.00034699370072
0.00115195141949
-0.000442949612758
-0.000176440108497
0.00032347101886
0.00111529013737
0.00215330348733
-0.000465812771891
-0.000514274106033
-0.000443506594028
-0.0005185132772
-0.000445066223079
-0.000187598485253
0.000266752533311
0.00102792469629
0.000296417509761
-0.000200745966881
0.00204098966248
0.00107356284357
0.00425374740144
0.00325456772695
0.0020995464396
0.0031909462856
-2.3352676295e-05
-0.000101963850643
-0.000213666632125
-0.000105438457439
-0.000207256574108
-0.000335226694499
-0.000452003738648
-0.000342979834685
-0.000218836472781
-0.000434602990635
-0.000499530892996
-0.000443683345774
-0.000326456095082
-0.000449748635989
-0.000504828850961
-0.000447258221168
-0.000215202314582
-0.000509742256043
-0.000349423166074
-0.000459432238412
0.000169177571865
-0.000261965234633
0.000876593642337
0.00020257590736
-0.00024620203541
-0.000454660726873
0.00297747475617
0.00184560394312
0.00191325286042
0.00092874077715
0.000235257226889
0.000979410277989
-0.000230508493897
-0.000493768160869
-0.000452273623045
0.00336866413061
0.00471324942167
0.00470077187688
0.00482354722731
0.00413142785873
0.00478572833963
0.00419429017384
0.00485883397503
0.00312309107953
0.0019786148478
0.00305176549565
0.00406544566423
0.642986987179
0.73530082949
0.817976967789
0.734767488817
0.817274799014
0.889044241638
0.948104743562
0.889844793307
0.818710917368
0.642551256686
0.545243049399
0.642741594477
0.734277850371
0.545153518554
0.445695545849
0.946583140922
0.887512200835
0.816609197585
0.888265955941
0.733840183039
0.815986141511
0.993438738783
0.947339271594
0.992799822581