# vtk DataFile Version 2.0
Packing Fraction Fields
ASCII
DATASET UNSTRUCTURED_GRID
POINTS 1089 double
1.0 0.875 0.0
1.0 0.9375 0.0
0.9375 0.9375 0.0
0.9375 0.875 0.0
0.875 0.875 0.0
0.875 0.9375 0.0
0.875 1.0 0.0
0.9375 1.0 0.0
1.0 1.0 0.0
1.0 0.75 0.0
1.0 0.8125 0.0
0.9375 0.8125 0.0
0.9375 0.75 0.0
0.875 0.75 0.0
0.875 0.8125 0.0
1.0 0.625 0.0
1.0 0.6875 0.0
0.9375 0.6875 0.0
0.9375 0.625 0.0
0.875 0.625 0.0
0.875 0.6875 0.0
1.0 0.5 0.0
1.0 0.5625 0.0
0.9375 0.5625 0.0
0.9375 0.5 0.0
0.875 0.5 0.0
0.875 0.5625 0.0
1.0 0.375 0.0
1.0 0.4375 0.0
0.9375 0.4375 0.0
0.9375 0.375 0.0
0.875 0.375 0.0
0.875 0.4375 0.0
1.0 0.25 0.0
1.0 0.3125 0.0
0.9375 0.3125 0.0
0.9375 0.25 0.0
0.875 0.25 0.0
0.875 0.3125 0.0
1.0 0.125 0.0
1.0 0.1875 0.0
0.9375 0.1875 0.0
0.9375 0.125 0.0
0.875 0.125 0.0
0.875 0.1875 0.0
1.0 0.0 0.0
1.0 0.0625 0.0
0.9375 0.0625 0.0
0.9375 0.0 0.0
0.875 0.0 0.0
0.875 0.0625 0.0
1.0 -0.125 0.0
1.0 -0.0625 0.0
0.9375 -0.0625 0.0
0.9375 -0.125 0.0
0.875 -0.125 0.0
0.875 -0.0625 0.0
1.0 -0.25 0.0
1.0 -0.1875 0.0
0.9375 -0.1875 0.0
0.9375 -0.25 0.0
0.875 -0.25 0.0
0.875 -0.1875 0.0
1.0 -0.375 0.0
1.0 -0.3125 0.0
0.9375 -0.3125 0.0
0.9375 -0.375 0.0
0.875 -0.375 0.0
0.875 -0.3125 0.0
1.0 -0.5 0.0
1.0 -0.4375 0.0
0.9375 -0.4375 0.0
0.9375 -0.5 0.0
0.875 -0.5 0.0
0.875 -0.4375 0.0
1.0 -0.625 0.0
1.0 -0.5625 0.0
0.9375 -0.5625 0.0
0.9375 -0.625 0.0
0.875 -0.625 0.0
0.875 -0.5625 0.0
1.0 -0.75 0.0
1.0 -0.6875 0.0
0.9375 -0.6875 0.0
0.9375 -0.75 0.0
0.875 -0.75 0.0
0.875 -0.6875 0.0
1.0 -0.875 0.0
1.0 -0.8125 0.0
0.9375 -0.8125 0.0
0.9375 -0.875 0.0
0.875 -0.875 0.0
0.875 -0.8125 0.0
1.0 -1.0 0.0
1.0 -0.9375 0.0
0.9375 -0.9375 0.0
0.9375 -1.0 0.0
0.875 -1.0 0.0
0.875 -0.9375 0.0
0.8125 0.9375 0.0
0.8125 0.875 0.0
0.75 0.875 0.0
0.75 0.9375 0.0
0.75 1.0 0.0
0.8125 1.0 0.0
0.8125 0.8125 0.0
0.8125 0.75 0.0
0.75 0.75 0.0
0.75 0.8125 0.0
0.8125 0.6875 0.0
0.8125 0.625 0.0
0.75 0.625 0.0
0.75 0.6875 0.0
0.8125 0.5625 0.0
0.8125 0.5 0.0
0.75 0.5 0.0
0.75 0.5625 0.0
0.8125 0.4375 0.0
0.8125 0.375 0.0
0.75 0.375 0.0
0.75 0.4375 0.0
0.8125 0.3125 0.0
0.8125 0.25 0.0
0.75 0.25 0.0
0.75 0.3125 0.0
0.8125 0.1875 0.0
0.8125 0.125 0.0
0.75 0.125 0.0
0.75 0.1875 0.0
0.8125 0.0625 0.0
0.8125 0.0 0.0
0.75 0.0 0.0
0.75 0.0625 0.0
0.8125 -0.0625 0.0
0.8125 -0.125 0.0
0.75 -0.125 0.0
0.75 -0.0625 0.0
0.8125 -0.1875 0.0
0.8125 -0.25 0.0
0.75 -0.25 0.0
0.75 -0.1875 0.0
0.8125 -0.3125 0.0
0.8125 -0.375 0.0
0.75 -0.375 0.0
0.75 -0.3125 0.0
0.8125 -0.4375 0.0
0.8125 -0.5 0.0
0.75 -0.5 0.0
0.75 -0.4375 0.0
0.8125 -0.5625 0.0
0.8125 -0.625 0.0
0.75 -0.625 0.0
0.75 -0.5625 0.0
0.8125 -0.6875 0.0
0.8125 -0.75 0.0
0.75 -0.75 0.0
0.75 -0.6875 0.0
0.8125 -0.8125 0.0
0.8125 -0.875 0.0
0.75 -0.875 0.0
0.75 -0.8125 0.0
0.8125 -0.9375 0.0
0.8125 -1.0 0.0
0.75 -1.0 0.0
0.75 -0.9375 0.0
0.6875 0.9375 0.0
0.6875 0.875 0.0
0.625 0.875 0.0
0.625 0.9375 0.0
0.625 1.0 0.0
0.6875 1.0 0.0
0.6875 0.8125 0.0
0.6875 0.75 0.0
0.625 0.75 0.0
0.625 0.8125 0.0
0.6875 0.6875 0.0
0.6875 0.625 0.0
0.625 0.625 0.0
0.625 0.6875 0.0
0.6875 0.5625 0.0
0.6875 0.5 0.0
0.625 0.5 0.0
0.625 0.5625 0.0
0.6875 0.4375 0.0
0.6875 0.375 0.0
0.625 0.375 0.0
0.625 0.4375 0.0
0.6875 0.3125 0.0
0.6875 0.25 0.0
0.625 0.25 0.0
0.625 0.3125 0.0
0.6875 0.1875 0.0
0.6875 0.125 0.0
0.625 0.125 0.0
0.625 0.1875 0.0
0.6875 0.0625 0.0
0.6875 0.0 0.0
0.625 0.0 0.0
0.625 0.0625 0.0
0.6875 -0.0625 0.0
0.6875 -0.125 0.0
0.625 -0.125 0.0
0.625 -0.0625 0.0
0.6875 -0.1875 0.0
0.6875 -0.25 0.0
0.625 -0.25 0.0
0.625 -0.1875 0.0
0.6875 -0.3125 0.0
0.6875 -0.375 0.0
0.625 -0.375 0.0
0.625 -0.3125 0.0
0.6875 -0.4375 0.0
0.6875 -0.5 0.0
0.625 -0.5 0.0
0.625 -0.4375 0.0
0.6875 -0.5625 0.0
0.6875 -0.625 0.0
0.625 -0.625 0.0
0.625 -0.5625 0.0
0.6875 -0.6875 0.0
0.6875 -0.75 0.0
0.625 -0.75 0.0
0.625 -0.6875 0.0
0.6875 -0.8125 0.0
0.6875 -0.875 0.0
0.625 -0.875 0.0
0.625 -0.8125 0.0
0.6875 -0.9375 0.0
0.6875 -1.0 0.0
0.625 -1.0 0.0
0.625 -0.9375 0.0
0.5625 0.9375 0.0
0.5625 0.875 0.0
0.5 0.875 0.0
0.5 0.9375 0.0
0.5 1.0 0.0
0.5625 1.0 0.0
0.5625 0.8125 0.0
0.5625 0.75 0.0
0.5 0.75 0.0
0.5 0.8125 0.0
0.5625 0.6875 0.0
0.5625 0.625 0.0
0.5 0.625 0.0
0.5 0.6875 0.0
0.5625 0.5625 0.0
0.5625 0.5 0.0
0.5 0.5 0.0
0.5 0.5625 0.0
0.5625 0.4375 0.0
0.5625 0.375 0.0
0.5 0.375 0.0
0.5 0.4375 0.0
0.5625 0.3125 0.0
0.5625 0.25 0.0
0.5 0.25 0.0
0.5 0.3125 0.0
0.5625 0.1875 0.0
0.5625 0.125 0.0
0.5 0.125 0.0
0.5 0.1875 0.0
0.5625 0.0625 0.0
0.5625 0.0 0.0
0.5 0.0 0.0
0.5 0.0625 0.0
0.5625 -0.0625 0.0
0.5625 -0.125 0.0
0.5 -0.125 0.0
0.5 -0.0625 0.0
0.5625 -0.1875 0.0
0.5625 -0.25 0.0
0.5 -0.25 0.0
0.5 -0.1875 0.0
0.5625 -0.3125 0.0
0.5625 -0.375 0.0
0.5 -0.375 0.0
0.5 -0.3125 0.0
0.5625 -0.4375 0.0
0.5625 -0.5 0.0
0.5 -0.5 0.0
0.5 -0.4375 0.0
0.5625 -0.5625 0.0
0.5625 -0.625 0.0
0.5 -0.625 0.0
0.5 -0.5625 0.0
0.5625 -0.6875 0.0
0.5625 -0.75 0.0
0.5 -0.75 0.0
0.5 -0.6875 0.0
0.5625 -0.8125 0.0
0.5625 -0.875 0.0
0.5 -0.875 0.0
0.5 -0.8125 0.0
0.5625 -0.9375 0.0
0.5625 -1.0 0.0
0.5 -1.0 0.0
0.5 -0.9375 0.0
-0.875 -0.875 0.0
-0.9375 -0.875 0.0
-0.9375 -0.9375 0.0
-0.875 -0.9375 0.0
-1.0 -0.875 0.0
-1.0 -0.9375 0.0
-1.0 -1.0 0.0
-0.9375 -1.0 0.0
-0.875 -1.0 0.0
-0.875 -0.75 0.0
-0.9375 -0.75 0.0
-0.9375 -0.8125 0.0
-0.875 -0.8125 0.0
-1.0 -0.75 0.0
-1.0 -0.8125 0.0
-0.875 -0.625 0.0
-0.9375 -0.625 0.0
-0.9375 -0.6875 0.0
-0.875 -0.6875 0.0
-1.0 -0.625 0.0
-1.0 -0.6875 0.0
-0.875 -0.5 0.0
-0.9375 -0.5 0.0
-0.9375 -0.5625 0.0
-0.875 -0.5625 0.0
-1.0 -0.5 0.0
-1.0 -0.5625 0.0
-0.875 -0.375 0.0
-0.9375 -0.375 0.0
-0.9375 -0.4375 0.0
-0.875 -0.4375 0.0
-1.0 -0.375 0.0
-1.0 -0.4375 0.0
-0.875 -0.25 0.0
-0.9375 -0.25 0.0
-0.9375 -0.3125 0.0
-0.875 -0.3125 0.0
-1.0 -0.25 0.0
-1.0 -0.3125 0.0
-0.875 -0.125 0.0
-0.9375 -0.125 0.0
-0.9375 -0.1875 0.0
-0.875 -0.1875 0.0
-1.0 -0.125 0.0
-1.0 -0.1875 0.0
-0.875 0.0 0.0
-0.9375 0.0 0.0
-0.9375 -0.0625 0.0
-0.875 -0.0625 0.0
-1.0 0.0 0.0
-1.0 -0.0625 0.0
-0.875 0.125 0.0
-0.9375 0.125 0.0
-0.9375 0.0625 0.0
-0.875 0.0625 0.0
-1.0 0.125 0.0
-1.0 0.0625 0.0
-0.875 0.25 0.0
-0.9375 0.25 0.0
-0.9375 0.1875 0.0
-0.875 0.1875 0.0
-1.0 0.25 0.0
-1.0 0.1875 0.0
-0.875 0.375 0.0
-0.9375 0.375 0.0
-0.9375 0.3125 0.0
-0.875 0.3125 0.0
-1.0 0.375 0.0
-1.0 0.3125 0.0
-0.875 0.5 0.0
-0.9375 0.5 0.0
-0.9375 0.4375 0.0
-0.875 0.4375 0.0
-1.0 0.5 0.0
-1.0 0.4375 0.0
-0.875 0.625 0.0
-0.9375 0.625 0.0
-0.9375 0.5625 0.0
-0.875 0.5625 0.0
-1.0 0.625 0.0
-1.0 0.5625 0.0
-0.875 0.75 0.0
-0.9375 0.75 0.0
-0.9375 0.6875 0.0
-0.875 0.6875 0.0
-1.0 0.75 0.0
-1.0 0.6875 0.0
-0.875 0.875 0.0
-0.9375 0.875 0.0
-0.9375 0.8125 0.0
-0.875 0.8125 0.0
-1.0 0.875 0.0
-1.0 0.8125 0.0
-0.875 1.0 0.0
-0.9375 1.0 0.0
-0.9375 0.9375 0.0
-0.875 0.9375 0.0
-1.0 1.0 0.0
-1.0 0.9375 0.0
-0.75 -0.875 0.0
-0.8125 -0.875 0.0
-0.8125 -0.9375 0.0
-0.75 -0.9375 0.0
-0.8125 -1.0 0.0
-0.75 -1.0 0.0
-0.75 -0.75 0.0
-0.8125 -0.75 0.0
-0.8125 -0.8125 0.0
-0.75 -0.8125 0.0
-0.75 -0.625 0.0
-0.8125 -0.625 0.0
-0.8125 -0.6875 0.0
-0.75 -0.6875 0.0
-0.75 -0.5 0.0
-0.8125 -0.5 0.0
-0.8125 -0.5625 0.0
-0.75 -0.5625 0.0
-0.75 -0.375 0.0
-0.8125 -0.375 0.0
-0.8125 -0.4375 0.0
-0.75 -0.4375 0.0
-0.75 -0.25 0.0
-0.8125 -0.25 0.0
-0.8125 -0.3125 0.0
-0.75 -0.3125 0.0
-0.75 -0.125 0.0
-0.8125 -0.125 0.0
-0.8125 -0.1875 0.0
-0.75 -0.1875 0.0
-0.75 0.0 0.0
-0.8125 0.0 0.0
-0.8125 -0.0625 0.0
-0.75 -0.0625 0.0
-0.75 0.125 0.0
-0.8125 0.125 0.0
-0.8125 0.0625 0.0
-0.75 0.0625 0.0
-0.75 0.25 0.0
-0.8125 0.25 0.0
-0.8125 0.1875 0.0
-0.75 0.1875 0.0
-0.75 0.375 0.0
-0.8125 0.375 0.0
-0.8125 0.3125 0.0
-0.75 0.3125 0.0
-0.75 0.5 0.0
-0.8125 0.5 0.0
-0.8125 0.4375 0.0
-0.75 0.4375 0.0
-0.75 0.625 0.0
-0.8125 0.625 0.0
-0.8125 0.5625 0.0
-0.75 0.5625 0.0
-0.75 0.75 0.0
-0.8125 0.75 0.0
-0.8125 0.6875 0.0
-0.75 0.6875 0.0
-0.75 0.875 0.0
-0.8125 0.875 0.0
-0.8125 0.8125 0.0
-0.75 0.8125 0.0
-0.75 1.0 0.0
-0.8125 1.0 0.0
-0.8125 0.9375 0.0
-0.75 0.9375 0.0
-0.625 -0.875 0.0
-0.6875 -0.875 0.0
-0.6875 -0.9375 0.0
-0.625 -0.9375 0.0
-0.6875 -1.0 0.0
-0.625 -1.0 0.0
-0.625 -0.75 0.0
-0.6875 -0.75 0.0
-0.6875 -0.8125 0.0
-0.625 -0.8125 0.0
-0.625 -0.625 0.0
-0.6875 -0.625 0.0
-0.6875 -0.6875 0.0
-0.625 -0.6875 0.0
-0.625 -0.5 0.0
-0.6875 -0.5 0.0
-0.6875 -0.5625 0.0
-0.625 -0.5625 0.0
-0.625 -0.375 0.0
-0.6875 -0.375 0.0
-0.6875 -0.4375 0.0
-0.625 -0.4375 0.0
-0.625 -0.25 0.0
-0.6875 -0.25 0.0
-0.6875 -0.3125 0.0
-0.625 -0.3125 0.0
-0.625 -0.125 0.0
-0.6875 -0.125 0.0
-0.6875 -0.1875 0.0
-0.625 -0.1875 0.0
-0.625 0.0 0.0
-0.6875 0.0 0.0
-0.6875 -0.0625 0.0
-0.625 -0.0625 0.0
-0.625 0.125 0.0
-0.6875 0.125 0.0
-0.6875 0.0625 0.0
-0.625 0.0625 0.0
-0.625 0.25 0.0
-0.6875 0.25 0.0
-0.6875 0.1875 0.0
-0.625 0.1875 0.0
-0.625 0.375 0.0
-0.6875 0.375 0.0
-0.6875 0.3125 0.0
-0.625 0.3125 0.0
-0.625 0.5 0.0
-0.6875 0.5 0.0
-0.6875 0.4375 0.0
-0.625 0.4375 0.0
-0.625 0.625 0.0
-0.6875 0.625 0.0
-0.6875 0.5625 0.0
-0.625 0.5625 0.0
-0.625 0.75 0.0
-0.6875 0.75 0.0
-0.6875 0.6875 0.0
-0.625 0.6875 0.0
-0.625 0.875 0.0
-0.6875 0.875 0.0
-0.6875 0.8125 0.0
-0.625 0.8125 0.0
-0.625 1.0 0.0
-0.6875 1.0 0.0
-0.6875 0.9375 0.0
-0.625 0.9375 0.0
-0.5 -0.875 0.0
-0.5625 -0.875 0.0
-0.5625 -0.9375 0.0
-0.5 -0.9375 0.0
-0.5625 -1.0 0.0
-0.5 -1.0 0.0
-0.5 -0.75 0.0
-0.5625 -0.75 0.0
-0.5625 -0.8125 0.0
-0.5 -0.8125 0.0
-0.5 -0.625 0.0
-0.5625 -0.625 0.0
-0.5625 -0.6875 0.0
-0.5 -0.6875 0.0
-0.5 -0.5 0.0
-0.5625 -0.5 0.0
-0.5625 -0.5625 0.0
-0.5 -0.5625 0.0
-0.5 -0.375 0.0
-0.5625 -0.375 0.0
-0.5625 -0.4375 0.0
-0.5 -0.4375 0.0
-0.5 -0.25 0.0
-0.5625 -0.25 0.0
-0.5625 -0.3125 0.0
-0.5 -0.3125 0.0
-0.5 -0.125 0.0
-0.5625 -0.125 0.0
-0.5625 -0.1875 0.0
-0.5 -0.1875 0.0
-0.5 0.0 0.0
-0.5625 0.0 0.0
-0.5625 -0.0625 0.0
-0.5 -0.0625 0.0
-0.5 0.125 0.0
-0.5625 0.125 0.0
-0.5625 0.0625 0.0
-0.5 0.0625 0.0
-0.5 0.25 0.0
-0.5625 0.25 0.0
-0.5625 0.1875 0.0
-0.5 0.1875 0.0
-0.5 0.375 0.0
-0.5625 0.375 0.0
-0.5625 0.3125 0.0
-0.5 0.3125 0.0
-0.5 0.5 0.0
-0.5625 0.5 0.0
-0.5625 0.4375 0.0
-0.5 0.4375 0.0
-0.5 0.625 0.0
-0.5625 0.625 0.0
-0.5625 0.5625 0.0
-0.5 0.5625 0.0
-0.5 0.75 0.0
-0.5625 0.75 0.0
-0.5625 0.6875 0.0
-0.5 0.6875 0.0
-0.5 0.875 0.0
-0.5625 0.875 0.0
-0.5625 0.8125 0.0
-0.5 0.8125 0.0
-0.5 1.0 0.0
-0.5625 1.0 0.0
-0.5625 0.9375 0.0
-0.5 0.9375 0.0
-0.375 -0.875 0.0
-0.4375 -0.875 0.0
-0.4375 -0.9375 0.0
-0.375 -0.9375 0.0
-0.4375 -1.0 0.0
-0.375 -1.0 0.0
-0.375 -0.75 0.0
-0.4375 -0.75 0.0
-0.4375 -0.8125 0.0
-0.375 -0.8125 0.0
-0.375 -0.625 0.0
-0.4375 -0.625 0.0
-0.4375 -0.6875 0.0
-0.375 -0.6875 0.0
-0.375 -0.5 0.0
-0.4375 -0.5 0.0
-0.4375 -0.5625 0.0
-0.375 -0.5625 0.0
-0.375 -0.375 0.0
-0.4375 -0.375 0.0
-0.4375 -0.4375 0.0
-0.375 -0.4375 0.0
-0.375 -0.25 0.0
-0.4375 -0.25 0.0
-0.4375 -0.3125 0.0
-0.375 -0.3125 0.0
-0.375 -0.125 0.0
-0.4375 -0.125 0.0
-0.4375 -0.1875 0.0
-0.375 -0.1875 0.0
-0.375 0.0 0.0
-0.4375 0.0 0.0
-0.4375 -0.0625 0.0
-0.375 -0.0625 0.0
-0.375 0.125 0.0
-0.4375 0.125 0.0
-0.4375 0.0625 0.0
-0.375 0.0625 0.0
-0.375 0.25 0.0
-0.4375 0.25 0.0
-0.4375 0.1875 0.0
-0.375 0.1875 0.0
-0.375 0.375 0.0
-0.4375 0.375 0.0
-0.4375 0.3125 0.0
-0.375 0.3125 0.0
-0.375 0.5 0.0
-0.4375 0.5 0.0
-0.4375 0.4375 0.0
-0.375 0.4375 0.0
-0.375 0.625 0.0
-0.4375 0.625 0.0
-0.4375 0.5625 0.0
-0.375 0.5625 0.0
-0.375 0.75 0.0
-0.4375 0.75 0.0
-0.4375 0.6875 0.0
-0.375 0.6875 0.0
-0.375 0.875 0.0
-0.4375 0.875 0.0
-0.4375 0.8125 0.0
-0.375 0.8125 0.0
-0.375 1.0 0.0
-0.4375 1.0 0.0
-0.4375 0.9375 0.0
-0.375 0.9375 0.0
-0.25 -0.875 0.0
-0.3125 -0.875 0.0
-0.3125 -0.9375 0.0
-0.25 -0.9375 0.0
-0.3125 -1.0 0.0
-0.25 -1.0 0.0
-0.25 -0.75 0.0
-0.3125 -0.75 0.0
-0.3125 -0.8125 0.0
-0.25 -0.8125 0.0
-0.25 -0.625 0.0
-0.3125 -0.625 0.0
-0.3125 -0.6875 0.0
-0.25 -0.6875 0.0
-0.25 -0.5 0.0
-0.3125 -0.5 0.0
-0.3125 -0.5625 0.0
-0.25 -0.5625 0.0
-0.25 -0.375 0.0
-0.3125 -0.375 0.0
-0.3125 -0.4375 0.0
-0.25 -0.4375 0.0
-0.25 -0.25 0.0
-0.3125 -0.25 0.0
-0.3125 -0.3125 0.0
-0.25 -0.3125 0.0
-0.25 -0.125 0.0
-0.3125 -0.125 0.0
-0.3125 -0.1875 0.0
-0.25 -0.1875 0.0
-0.25 0.0 0.0
-0.3125 0.0 0.0
-0.3125 -0.0625 0.0
-0.25 -0.0625 0.0
-0.25 0.125 0.0
-0.3125 0.125 0.0
-0.3125 0.0625 0.0
-0.25 0.0625 0.0
-0.25 0.25 0.0
-0.3125 0.25 0.0
-0.3125 0.1875 0.0
-0.25 0.1875 0.0
-0.25 0.375 0.0
-0.3125 0.375 0.0
-0.3125 0.3125 0.0
-0.25 0.3125 0.0
-0.25 0.5 0.0
-0.3125 0.5 0.0
-0.3125 0.4375 0.0
-0.25 0.4375 0.0
-0.25 0.625 0.0
-0.3125 0.625 0.0
-0.3125 0.5625 0.0
-0.25 0.5625 0.0
-0.25 0.75 0.0
-0.3125 0.75 0.0
-0.3125 0.6875 0.0
-0.25 0.6875 0.0
-0.25 0.875 0.0
-0.3125 0.875 0.0
-0.3125 0.8125 0.0
-0.25 0.8125 0.0
-0.25 1.0 0.0
-0.3125 1.0 0.0
-0.3125 0.9375 0.0
-0.25 0.9375 0.0
-0.125 -0.875 0.0
-0.1875 -0.875 0.0
-0.1875 -0.9375 0.0
-0.125 -0.9375 0.0
-0.1875 -1.0 0.0
-0.125 -1.0 0.0
-0.125 -0.75 0.0
-0.1875 -0.75 0.0
-0.1875 -0.8125 0.0
-0.125 -0.8125 0.0
-0.125 -0.625 0.0
-0.1875 -0.625 0.0
-0.1875 -0.6875 0.0
-0.125 -0.6875 0.0
-0.125 -0.5 0.0
-0.1875 -0.5 0.0
-0.1875 -0.5625 0.0
-0.125 -0.5625 0.0
-0.125 -0.375 0.0
-0.1875 -0.375 0.0
-0.1875 -0.4375 0.0
-0.125 -0.4375 0.0
-0.125 -0.25 0.0
-0.1875 -0.25 0.0
-0.1875 -0.3125 0.0
-0.125 -0.3125 0.0
-0.125 -0.125 0.0
-0.1875 -0.125 0.0
-0.1875 -0.1875 0.0
-0.125 -0.1875 0.0
-0.125 0.0 0.0
-0.1875 0.0 0.0
-0.1875 -0.0625 0.0
-0.125 -0.0625 0.0
-0.125 0.125 0.0
-0.1875 0.125 0.0
-0.1875 0.0625 0.0
-0.125 0.0625 0.0
-0.125 0.25 0.0
-0.1875 0.25 0.0
-0.1875 0.1875 0.0
-0.125 0.1875 0.0
-0.125 0.375 0.0
-0.1875 0.375 0.0
-0.1875 0.3125 0.0
-0.125 0.3125 0.0
-0.125 0.5 0.0
-0.1875 0.5 0.0
-0.1875 0.4375 0.0
-0.125 0.4375 0.0
-0.125 0.625 0.0
-0.1875 0.625 0.0
-0.1875 0.5625 0.0
-0.125 0.5625 0.0
-0.125 0.75 0.0
-0.1875 0.75 0.0
-0.1875 0.6875 0.0
-0.125 0.6875 0.0
-0.125 0.875 0.0
-0.1875 0.875 0.0
-0.1875 0.8125 0.0
-0.125 0.8125 0.0
-0.125 1.0 0.0
-0.1875 1.0 0.0
-0.1875 0.9375 0.0
-0.125 0.9375 0.0
1.2300766466e-17 -0.875 0.0
-0.0625 -0.875 0.0
-0.0625 -0.9375 0.0
6.93889390391e-18 -0.9375 0.0
-0.0625 -1.0 0.0
0.0 -1.0 0.0
1.41931920762e-17 -0.75 0.0
-0.0625 -0.75 0.0
-0.0625 -0.8125 0.0
1.56125112838e-17 -0.8125 0.0
1.41931920762e-17 -0.625 0.0
-0.0625 -0.625 0.0
-0.0625 -0.6875 0.0
1.56125112838e-17 -0.6875 0.0
1.41931920762e-17 -0.5 0.0
-0.0625 -0.5 0.0
-0.0625 -0.5625 0.0
1.56125112838e-17 -0.5625 0.0
1.76626390281e-17 -0.375 0.0
-0.0625 -0.375 0.0
-0.0625 -0.4375 0.0
1.56125112838e-17 -0.4375 0.0
1.76626390281e-17 -0.25 0.0
-0.0625 -0.25 0.0
-0.0625 -0.3125 0.0
1.90819582357e-17 -0.3125 0.0
1.41931920762e-17 -0.125 0.0
-0.0625 -0.125 0.0
-0.0625 -0.1875 0.0
1.90819582357e-17 -0.1875 0.0
3.78485122031e-18 0.0 0.0
-0.0625 0.0 0.0
-0.0625 -0.0625 0.0
1.21430643318e-17 -0.0625 0.0
1.41931920762e-17 0.125 0.0
-0.0625 0.125 0.0
-0.0625 0.0625 0.0
1.38777878078e-17 0.0625 0.0
1.76626390281e-17 0.25 0.0
-0.0625 0.25 0.0
-0.0625 0.1875 0.0
1.90819582357e-17 0.1875 0.0
1.76626390281e-17 0.375 0.0
-0.0625 0.375 0.0
-0.0625 0.3125 0.0
1.90819582357e-17 0.3125 0.0
1.76626390281e-17 0.5 0.0
-0.0625 0.5 0.0
-0.0625 0.4375 0.0
1.90819582357e-17 0.4375 0.0
1.76626390281e-17 0.625 0.0
-0.0625 0.625 0.0
-0.0625 0.5625 0.0
1.90819582357e-17 0.5625 0.0
1.76626390281e-17 0.75 0.0
-0.0625 0.75 0.0
-0.0625 0.6875 0.0
1.90819582357e-17 0.6875 0.0
1.76626390281e-17 0.875 0.0
-0.0625 0.875 0.0
-0.0625 0.8125 0.0
1.90819582357e-17 0.8125 0.0
0.0 1.0 0.0
-0.0625 1.0 0.0
-0.0625 0.9375 0.0
8.67361737988e-18 0.9375 0.0
0.125 -0.875 0.0
0.0625 -0.875 0.0
0.0625 -0.9375 0.0
0.125 -0.9375 0.0
0.0625 -1.0 0.0
0.125 -1.0 0.0
0.125 -0.75 0.0
0.0625 -0.75 0.0
0.0625 -0.8125 0.0
0.125 -0.8125 0.0
0.125 -0.625 0.0
0.0625 -0.625 0.0
0.0625 -0.6875 0.0
0.125 -0.6875 0.0
0.125 -0.5 0.0
0.0625 -0.5 0.0
0.0625 -0.5625 0.0
0.125 -0.5625 0.0
0.125 -0.375 0.0
0.0625 -0.375 0.0
0.0625 -0.4375 0.0
0.125 -0.4375 0.0
0.125 -0.25 0.0
0.0625 -0.25 0.0
0.0625 -0.3125 0.0
0.125 -0.3125 0.0
0.125 -0.125 0.0
0.0625 -0.125 0.0
0.0625 -0.1875 0.0
0.125 -0.1875 0.0
0.125 0.0 0.0
0.0625 0.0 0.0
0.0625 -0.0625 0.0
0.125 -0.0625 0.0
0.125 0.125 0.0
0.0625 0.125 0.0
0.0625 0.0625 0.0
0.125 0.0625 0.0
0.125 0.25 0.0
0.0625 0.25 0.0
0.0625 0.1875 0.0
0.125 0.1875 0.0
0.125 0.375 0.0
0.0625 0.375 0.0
0.0625 0.3125 0.0
0.125 0.3125 0.0
0.125 0.5 0.0
0.0625 0.5 0.0
0.0625 0.4375 0.0
0.125 0.4375 0.0
0.125 0.625 0.0
0.0625 0.625 0.0
0.0625 0.5625 0.0
0.125 0.5625 0.0
0.125 0.75 0.0
0.0625 0.75 0.0
0.0625 0.6875 0.0
0.125 0.6875 0.0
0.125 0.875 0.0
0.0625 0.875 0.0
0.0625 0.8125 0.0
0.125 0.8125 0.0
0.125 1.0 0.0
0.0625 1.0 0.0
0.0625 0.9375 0.0
0.125 0.9375 0.0
0.25 -0.875 0.0
0.1875 -0.875 0.0
0.1875 -0.9375 0.0
0.25 -0.9375 0.0
0.1875 -1.0 0.0
0.25 -1.0 0.0
0.25 -0.75 0.0
0.1875 -0.75 0.0
0.1875 -0.8125 0.0
0.25 -0.8125 0.0
0.25 -0.625 0.0
0.1875 -0.625 0.0
0.1875 -0.6875 0.0
0.25 -0.6875 0.0
0.25 -0.5 0.0
0.1875 -0.5 0.0
0.1875 -0.5625 0.0
0.25 -0.5625 0.0
0.25 -0.375 0.0
0.1875 -0.375 0.0
0.1875 -0.4375 0.0
0.25 -0.4375 0.0
0.25 -0.25 0.0
0.1875 -0.25 0.0
0.1875 -0.3125 0.0
0.25 -0.3125 0.0
0.25 -0.125 0.0
0.1875 -0.125 0.0
0.1875 -0.1875 0.0
0.25 -0.1875 0.0
0.25 0.0 0.0
0.1875 0.0 0.0
0.1875 -0.0625 0.0
0.25 -0.0625 0.0
0.25 0.125 0.0
0.1875 0.125 0.0
0.1875 0.0625 0.0
0.25 0.0625 0.0
0.25 0.25 0.0
0.1875 0.25 0.0
0.1875 0.1875 0.0
0.25 0.1875 0.0
0.25 0.375 0.0
0.1875 0.375 0.0
0.1875 0.3125 0.0
0.25 0.3125 0.0
0.25 0.5 0.0
0.1875 0.5 0.0
0.1875 0.4375 0.0
0.25 0.4375 0.0
0.25 0.625 0.0
0.1875 0.625 0.0
0.1875 0.5625 0.0
0.25 0.5625 0.0
0.25 0.75 0.0
0.1875 0.75 0.0
0.1875 0.6875 0.0
0.25 0.6875 0.0
0.25 0.875 0.0
0.1875 0.875 0.0
0.1875 0.8125 0.0
0.25 0.8125 0.0
0.25 1.0 0.0
0.1875 1.0 0.0
0.1875 0.9375 0.0
0.25 0.9375 0.0
0.375 -0.875 0.0
0.3125 -0.875 0.0
0.3125 -0.9375 0.0
0.375 -0.9375 0.0
0.3125 -1.0 0.0
0.375 -1.0 0.0
0.375 -0.75 0.0
0.3125 -0.75 0.0
0.3125 -0.8125 0.0
0.375 -0.8125 0.0
0.375 -0.625 0.0
0.3125 -0.625 0.0
0.3125 -0.6875 0.0
0.375 -0.6875 0.0
0.375 -0.5 0.0
0.3125 -0.5 0.0
0.3125 -0.5625 0.0
0.375 -0.5625 0.0
0.375 -0.375 0.0
0.3125 -0.375 0.0
0.3125 -0.4375 0.0
0.375 -0.4375 0.0
0.375 -0.25 0.0
0.3125 -0.25 0.0
0.3125 -0.3125 0.0
0.375 -0.3125 0.0
0.375 -0.125 0.0
0.3125 -0.125 0.0
0.3125 -0.1875 0.0
0.375 -0.1875 0.0
0.375 0.0 0.0
0.3125 0.0 0.0
0.3125 -0.0625 0.0
0.375 -0.0625 0.0
0.375 0.125 0.0
0.3125 0.125 0.0
0.3125 0.0625 0.0
0.375 0.0625 0.0
0.375 0.25 0.0
0.3125 0.25 0.0
0.3125 0.1875 0.0
0.375 0.1875 0.0
0.375 0.375 0.0
0.3125 0.375 0.0
0.3125 0.3125 0.0
0.375 0.3125 0.0
0.375 0.5 0.0
0.3125 0.5 0.0
0.3125 0.4375 0.0
0.375 0.4375 0.0
0.375 0.625 0.0
0.3125 0.625 0.0
0.3125 0.5625 0.0
0.375 0.5625 0.0
0.375 0.75 0.0
0.3125 0.75 0.0
0.3125 0.6875 0.0
0.375 0.6875 0.0
0.375 0.875 0.0
0.3125 0.875 0.0
0.3125 0.8125 0.0
0.375 0.8125 0.0
0.375 1.0 0.0
0.3125 1.0 0.0
0.3125 0.9375 0.0
0.375 0.9375 0.0
0.4375 -0.875 0.0
0.4375 -0.9375 0.0
0.4375 -1.0 0.0
0.4375 -0.75 0.0
0.4375 -0.8125 0.0
0.4375 -0.625 0.0
0.4375 -0.6875 0.0
0.4375 -0.5 0.0
0.4375 -0.5625 0.0
0.4375 -0.375 0.0
0.4375 -0.4375 0.0
0.4375 -0.25 0.0
0.4375 -0.3125 0.0
0.4375 -0.125 0.0
0.4375 -0.1875 0.0
0.4375 0.0 0.0
0.4375 -0.0625 0.0
0.4375 0.125 0.0
0.4375 0.0625 0.0
0.4375 0.25 0.0
0.4375 0.1875 0.0
0.4375 0.375 0.0
0.4375 0.3125 0.0
0.4375 0.5 0.0
0.4375 0.4375 0.0
0.4375 0.625 0.0
0.4375 0.5625 0.0
0.4375 0.75 0.0
0.4375 0.6875 0.0
0.4375 0.875 0.0
0.4375 0.8125 0.0
0.4375 1.0 0.0
0.4375 0.9375 0.0

POINT_DATA 1089
SCALARS Radiance double
LOOKUP_TABLE default
0.012407403733
0.126531732084
0.277150512046
0.116117656301
0.271562449938
0.46252086882
0.644006522596
0.458187687127
0.284482017817
-0.0627808978761
-0.0476749206139
0.00426126146544
-0.0522887644388
-0.000987737099852
0.109150893991
-0.027329981798
-0.0501337941481
-0.0640302057765
-0.0490672803617
-0.064327131664
-0.0549787591043
0.00459925389291
-0.00712463793397
-0.0253312231827
-0.0053447236076
-0.0235608282608
-0.047795822181
0.00594829767714
0.00787176759519
0.00557828341319
0.00804356587384
0.0062367289873
-0.00393671517585
-4.70423135004e-05
0.00251549200257
0.0056470346643
0.00212317753094
0.00529101250559
0.00802938254066
-0.000910791505974
-0.00104537631332
-0.000296050977543
-0.00110632585924
-0.000490436981064
0.00175867241272
1.2021015826e-05
-0.000388101900256
-0.00085778903014
-0.000315010262978
-0.000786046803585
-0.00112383933559
0.000110925131797
0.000148192000566
5.29080176741e-05
0.000152812410864
8.4370963026e-05
-0.000242999550309
-1.15628246453e-05
3.35397568562e-05
9.87947082885e-05
2.26385615253e-05
8.3989059772e-05
0.000149541061777
-8.84976498327e-06
-1.84366179176e-05
-1.51682271743e-05
-1.71834023999e-05
-1.71457149955e-05
1.25745042151e-05
2.08473674909e-06
-4.25276749051e-07
-6.93957827952e-06
4.00627080256e-07
-4.71710191817e-06
-1.51455793586e-05
2.70406368388e-07
1.31343567612e-06
2.11522619125e-06
1.09696622983e-06
1.74422781472e-06
1.03963316211e-06
-2.01158824092e-07
-1.29835690298e-07
1.33191683858e-08
-2.22497026722e-07
8.79963591644e-08
7.27425742977e-07
1.08396724542e-07
-5.27616845697e-08
1.14473996828e-07
-4.23247412574e-08
-2.09046261095e-07
-1.42413320934e-07
0.0
4.09787332612e-08
-1.48356169933e-07
0.0
0.0
1.16167810604e-07
0.65510005137
0.462922213561
0.660229344944
0.81463141025
0.88848388882
0.799364847523
0.266915156018
0.103843649426
0.262733907179
0.461802434327
-0.00488963132221
-0.0567634572629
-0.00817316038361
0.0992936967618
-0.0641440114186
-0.0463910875694
-0.0636912583285
-0.0581037215616
-0.0218805253715
-0.00271251086252
-0.0202278852995
-0.0448833359547
0.00672076155696
0.00790626611522
0.00709622196574
-0.0015872456555
0.00490085775672
0.00141212437165
0.00448681494333
0.00770889365881
-0.000647834038737
-0.00111205194632
-0.000775810411283
0.0010807948751
-0.000703300438357
-0.000174659416563
-0.000613983785369
-0.00107817746623
0.000107972530174
0.000140848700329
0.000123660883282
-0.000110997140322
6.79822672682e-05
3.94803788227e-06
5.21821013979e-05
0.000128226095746
-1.75507789405e-05
-1.24382161018e-05
-1.68474204659e-05
-2.95232580962e-06
-3.09280826026e-06
1.47315416093e-06
-1.37886762334e-06
-9.66589119992e-06
1.46006368767e-06
4.63717461067e-07
1.11599738817e-06
1.34426021387e-06
-7.22553651046e-08
-6.33073023656e-08
-8.28122955914e-08
1.83586852258e-07
-2.50568659253e-08
0.0
0.0
2.39007912564e-09
0.904448453812
0.823347050457
0.914657525232
0.90177078487
0.798793211302
0.889041445757
0.662788700966
0.460071957254
0.664245191012
0.829162872766
0.258740030953
0.0950554950327
0.254771440259
0.458059969308
-0.0111774438572
-0.0592053136709
-0.0140579985224
0.0909114832172
-0.0630613183509
-0.0432845912324
-0.0622911676616
-0.0601575985523
-0.0185747106703
-0.000524264501309
-0.0169098103777
-0.0415996934157
0.00739094949753
0.00745339229448
0.00761621557771
0.000490577872885
0.00405462486814
0.00076470499044
0.00360868543262
0.00714617729215
-0.000876971245391
-0.00102545544936
-0.000951647690148
0.000465947055395
-0.000521235451437
-5.39904881696e-05
-0.00042753235926
-0.000956604409924
0.000132473603772
0.000112301455602
0.000134016110768
-4.50169003032e-06
3.73717395032e-05
-7.8770225267e-06
2.38581656625e-05
9.4900881767e-05
-1.50623346916e-05
-6.99577236477e-06
-1.26697507267e-05
-1.07498879931e-05
-4.16910205073e-07
1.36274343656e-06
3.26313712536e-07
-4.56134002637e-06
6.56626550995e-07
1.60663947625e-07
3.52020641313e-07
9.35301137543e-07
-7.91826744021e-08
0.0
0.0
2.0544012036e-08
0.80519299955
0.910672830442
0.810260421813
0.636100753107
0.439753203906
0.637152591199
0.922256488224
0.833733681445
0.928738363083
0.91776440694
0.665221283147
0.455873300276
0.665974430767
0.837803746032
0.250735367284
0.0867558694823
0.246579627653
0.45353683382
-0.0168827964899
-0.0609968226404
-0.0196820994005
0.0825378431282
-0.0613946764043
-0.0398293608841
-0.0603736278147
-0.0617336293476
-0.0152292144
0.00146021169397
-0.0135341336379
-0.0379730957557
0.00777413645765
0.0067907056374
0.00786362920513
0.00238270637761
0.00315284454113
0.000187476217945
0.00269140519378
0.0063878991772
-0.000999497024214
-0.00087314329166
-0.00101932073653
-6.67628296003e-05
-0.000335393431292
3.60924283304e-05
-0.000247274655913
-0.000777742038795
0.000129328159833
7.61507640733e-05
0.000118897608005
6.70325625174e-05
1.2969330188e-05
-1.2032156525e-05
4.09573652766e-06
5.78204820145e-05
-9.80347781778e-06
-2.65162006153e-06
-7.00367414167e-06
-1.13647868525e-05
5.84001115477e-07
7.2247408855e-07
4.9977520636e-07
-1.20865866156e-06
1.19924645515e-07
0.0
0.0
2.62243971756e-07
0.00278066779031
0.287587372272
-0.0710177957563
-0.0574431828405
1.0
0.0
0.0
0.0
0.0
0.732309909886
0.97454464857
0.799102667901
0.349016634411
1.0
1.0
1.02874081089
1.03502297472
1.01921243359
0.942853954385
1.0
1.0
1.019734022
0.714960309067
1.08470092791
1.09757266908
0.0
1.0
0.264944048528
0.0232206967397
0.199212606763
0.657148000374
0.0
0.0
-0.0201867451209
-0.0156316054986
-0.0176247238221
0.0526444236389
0.0
0.0
-0.0142016514545
-0.000778022155826
-0.00660560169355
-0.0265889942291
0.0
0.0
0.00157064769341
0.00119977909264
0.00124000375134
-0.00335256793196
0.0
0.0
0.0013811823051
9.88585666579e-05
0.000584640389507
0.0022962677036
0.0
0.0
-0.000127799780815
-0.00012506282534
-0.000108634387633
0.000397625012993
0.0
0.0
-0.000167241653457
-1.69575142546e-05
-6.99348632659e-05
-0.000245362112933
0.0
0.0
8.35350463056e-06
1.4793686102e-05
9.92194507087e-06
-5.88015230956e-05
0.0
0.0
2.23421309099e-05
2.97220452993e-06
9.47192510384e-06
2.86715172239e-05
0.0
0.0
-1.40139649536e-07
-1.8793986666e-06
-8.76936011072e-07
9.22846208816e-06
0.0
0.0
-2.90398486852e-06
-3.67001294078e-07
-1.28401280924e-06
-3.53230418901e-06
0.0
0.0
1.31604982885e-07
1.60507147501e-07
1.50952946679e-07
-1.04658911927e-06
0.0
0.0
-0.0495240413691
-0.0636881155639
-0.0293720318833
-0.00941782184747
0.0
0.0
0.0916963917218
0.368282798044
0.0569492201929
-0.0527261423348
0.677754095181
0.918933733757
0.699050486469
0.376300665553
1.06499224929
1.10782368152
1.05224851479
0.910564101029
0.943074539496
0.641379607324
0.972505928385
1.09891851641
0.317438138504
0.0763944469842
0.29707186965
0.635971308623
-0.0112649315396
-0.0334480690301
-0.016820247723
0.0952836882558
-0.0274213712203
-0.00691291883174
-0.0212933697891
-0.0374415383846
-0.000155761414421
0.0030965084683
0.00104498502171
-0.0108881428431
0.0030830430594
0.00086072207399
0.00224977792257
0.00353025498522
0.000161607247685
-0.000334109873452
-3.77343076198e-05
0.00143657129421
-0.000387396117107
-0.000123898823704
-0.00027792654534
-0.000372749913234
-4.16552828388e-05
3.80287322721e-05
-8.38072692162e-06
-0.00020721862781
5.10149427457e-05
1.86112980751e-05
3.68954240479e-05
3.97686867538e-05
7.67340510805e-06
-4.48333295338e-06
2.67162029203e-06
3.03880370273e-05
-5.68956727093e-06
-1.86053931958e-06
-4.52597771683e-06
-4.32325969437e-06
-0.00384429705753
-0.0220132354053
-4.65735538497e-05
0.00244644035018
0.0
0.0
-0.0629663428623
-0.038482563743
-0.0594528960463
-0.0332154960714
0.130743609898
0.379615589492
0.114858953721
-0.0250313340632
0.661582415218
0.908530460483
0.666336842819
0.382068580869
1.06360326167
1.08516683474
1.06735770925
0.907556342536
0.909246206462
0.63402468118
0.923479541187
1.07092830268
0.344290436988
0.110809989386
0.332381098448
0.633509261458
0.00148117526856
-0.0395174360937
-0.00497318156483
0.124004564596
-0.0367696525182
-0.0149377398088
-0.0325467654194
-0.0403016339545
-0.00385342820579
0.00359834737201
-0.00184152657661
-0.0188761956618
0.00439622658412
0.00207396810127
0.00381150657694
0.00333588657813
0.000832174134311
-0.000351154504485
0.000457669860591
0.00272928274138
-0.000553440578783
-0.00030206401411
-0.000482599282672
-0.000266417601936
-0.000153630666329
3.18076699535e-05
-9.08383599143e-05
-0.000400899731164
6.93018005208e-05
4.32885368193e-05
6.25116341855e-05
1.30507232903e-05
2.19045183091e-05
-2.84195440172e-06
1.44454388148e-05
5.55155320412e-05
0.00376802218981
0.00322380100099
0.00196224857649
0.000869718060254
0.0
0.0
-0.0155128549885
-0.0418819646347
-0.00946044261525
0.00240875379746
-0.0613014306635
-0.0135132880412
-0.0629767625877
-0.0481812074027
0.151650962749
0.38523744115
0.14234872116
-0.00391372712257
0.661082069671
0.905944688208
0.660475887612
0.389344634688
1.0483622787
1.05737550182
1.05671724228
0.903438090321
0.88896014059
0.633643689141
0.89812965558
1.04474960165
0.362880840274
0.135520141303
0.354263855392
0.634069114689
0.0140929041493
-0.0401967477733
0.007867092229
0.145774632184
-0.0430190404629
-0.0226095326736
-0.0402196564294
-0.0394638988992
-0.00840424138913
0.00278983508098
-0.00607061431537
-0.0260963017814
0.00508065997192
0.00336844680599
0.00482041939509
0.00200830583269
0.00173597742626
-0.000120404404029
0.00126475643997
0.00396668683025
-0.000595761259035
-0.00049650167906
-0.000592704628479
8.14600578208e-05
-0.000304542979767
-1.6388744462e-05
-0.000226448113056
-0.000581781026917
6.15086139547e-05
6.45105274959e-05
6.95405918232e-05
-5.52065624332e-05
0.000557373131488
0.00210854937113
0.000113017407012
-0.000182919293759
0.0
0.0
0.0055666260844
0.00045519914459
0.00500665701213
0.00343741771564
-0.0264545037076
-0.0526508676442
-0.0212733321251
-0.00217458345788
-0.0563964808254
0.00419012488832
-0.0589475031201
-0.0558285068628
0.167284306748
0.394130140643
0.159774885785
0.0112562063087
0.663757804234
0.900191927525
0.662349863782
0.399269299511
1.03032726112
1.03302978456
1.0394135873
0.896423895624
0.87412588504
0.63460320134
0.88108685712
1.02212936424
0.377281518535
0.155045689909
0.370481267088
0.635150303946
0.0259573146577
-0.0382773287597
0.0201252891368
0.163524500966
-0.0470627578687
-0.0293230377377
-0.0452714525404
-0.0367554341422
-0.0131869481654
0.00103550174027
-0.0107913689058
-0.0322913551209
0.00513353430869
0.00450616433779
0.00518207951382
-9.07043738645e-05
0.00272512876385
0.000332319023004
0.00222808030363
0.00497479793489
-0.000482750558454
-0.000649774188988
-0.000559846426915
0.00062421902807
-0.000448030488271
-0.000100411312878
-0.000381519418483
-0.000692156497933
-0.000376942287898
-0.000221348614424
-0.000192600998561
-0.000103881413648
0.0
0.0
0.00212056145296
0.00465195518053
0.001261351164
-8.25763736673e-05
0.00494477647143
-0.00513267999645
0.00550542297072
0.00563890325194