# vtk DataFile Version 2.0
Packing Fraction Fields
ASCII
DATASET UNSTRUCTURED_GRID
POINTS 4225 double
0.4375 0.875 0.0
0.46875 0.875 0.0
0.46875 0.90625 0.0
0.4375 0.90625 0.0
0.4375 0.9375 0.0
0.46875 0.9375 0.0
0.5 0.9375 0.0
0.5 0.90625 0.0
0.5 0.875 0.0
0.375 0.9375 0.0
0.375 0.90625 0.0
0.40625 0.90625 0.0
0.40625 0.9375 0.0
0.40625 0.875 0.0
0.375 0.875 0.0
0.4375 1.0 0.0
0.40625 1.0 0.0
0.40625 0.96875 0.0
0.4375 0.96875 0.0
0.375 0.96875 0.0
0.375 1.0 0.0
0.5 0.96875 0.0
0.46875 0.96875 0.0
0.46875 1.0 0.0
0.5 1.0 0.0
0.4375 0.75 0.0
0.46875 0.75 0.0
0.46875 0.78125 0.0
0.4375 0.78125 0.0
0.4375 0.8125 0.0
0.46875 0.8125 0.0
0.5 0.8125 0.0
0.5 0.78125 0.0
0.5 0.75 0.0
0.375 0.8125 0.0
0.375 0.78125 0.0
0.40625 0.78125 0.0
0.40625 0.8125 0.0
0.40625 0.75 0.0
0.375 0.75 0.0
0.40625 0.84375 0.0
0.4375 0.84375 0.0
0.375 0.84375 0.0
0.5 0.84375 0.0
0.46875 0.84375 0.0
0.4375 0.625 0.0
0.46875 0.625 0.0
0.46875 0.65625 0.0
0.4375 0.65625 0.0
0.4375 0.6875 0.0
0.46875 0.6875 0.0
0.5 0.6875 0.0
0.5 0.65625 0.0
0.5 0.625 0.0
0.375 0.6875 0.0
0.375 0.65625 0.0
0.40625 0.65625 0.0
0.40625 0.6875 0.0
0.40625 0.625 0.0
0.375 0.625 0.0
0.40625 0.71875 0.0
0.4375 0.71875 0.0
0.375 0.71875 0.0
0.5 0.71875 0.0
0.46875 0.71875 0.0
0.4375 0.5 0.0
0.46875 0.5 0.0
0.46875 0.53125 0.0
0.4375 0.53125 0.0
0.4375 0.5625 0.0
0.46875 0.5625 0.0
0.5 0.5625 0.0
0.5 0.53125 0.0
0.5 0.5 0.0
0.375 0.5625 0.0
0.375 0.53125 0.0
0.40625 0.53125 0.0
0.40625 0.5625 0.0
0.40625 0.5 0.0
0.375 0.5 0.0
0.40625 0.59375 0.0
0.4375 0.59375 0.0
0.375 0.59375 0.0
0.5 0.59375 0.0
0.46875 0.59375 0.0
0.4375 0.375 0.0
0.46875 0.375 0.0
0.46875 0.40625 0.0
0.4375 0.40625 0.0
0.4375 0.4375 0.0
0.46875 0.4375 0.0
0.5 0.4375 0.0
0.5 0.40625 0.0
0.5 0.375 0.0
0.375 0.4375 0.0
0.375 0.40625 0.0
0.40625 0.40625 0.0
0.40625 0.4375 0.0
0.40625 0.375 0.0
0.375 0.375 0.0
0.40625 0.46875 0.0
0.4375 0.46875 0.0
0.375 0.46875 0.0
0.5 0.46875 0.0
0.46875 0.46875 0.0
0.4375 0.25 0.0
0.46875 0.25 0.0
0.46875 0.28125 0.0
0.4375 0.28125 0.0
0.4375 0.3125 0.0
0.46875 0.3125 0.0
0.5 0.3125 0.0
0.5 0.28125 0.0
0.5 0.25 0.0
0.375 0.3125 0.0
0.375 0.28125 0.0
0.40625 0.28125 0.0
0.40625 0.3125 0.0
0.40625 0.25 0.0
0.375 0.25 0.0
0.40625 0.34375 0.0
0.4375 0.34375 0.0
0.375 0.34375 0.0
0.5 0.34375 0.0
0.46875 0.34375 0.0
0.4375 0.125 0.0
0.46875 0.125 0.0
0.46875 0.15625 0.0
0.4375 0.15625 0.0
0.4375 0.1875 0.0
0.46875 0.1875 0.0
0.5 0.1875 0.0
0.5 0.15625 0.0
0.5 0.125 0.0
0.375 0.1875 0.0
0.375 0.15625 0.0
0.40625 0.15625 0.0
0.40625 0.1875 0.0
0.40625 0.125 0.0
0.375 0.125 0.0
0.40625 0.21875 0.0
0.4375 0.21875 0.0
0.375 0.21875 0.0
0.5 0.21875 0.0
0.46875 0.21875 0.0
0.4375 0.0 0.0
0.46875 0.0 0.0
0.46875 0.03125 0.0
0.4375 0.03125 0.0
0.4375 0.0625 0.0
0.46875 0.0625 0.0
0.5 0.0625 0.0
0.5 0.03125 0.0
0.5 0.0 0.0
0.375 0.0625 0.0
0.375 0.03125 0.0
0.40625 0.03125 0.0
0.40625 0.0625 0.0
0.40625 0.0 0.0
0.375 0.0 0.0
0.40625 0.09375 0.0
0.4375 0.09375 0.0
0.375 0.09375 0.0
0.5 0.09375 0.0
0.46875 0.09375 0.0
0.4375 -0.125 0.0
0.46875 -0.125 0.0
0.46875 -0.09375 0.0
0.4375 -0.09375 0.0
0.4375 -0.0625 0.0
0.46875 -0.0625 0.0
0.5 -0.0625 0.0
0.5 -0.09375 0.0
0.5 -0.125 0.0
0.375 -0.0625 0.0
0.375 -0.09375 0.0
0.40625 -0.09375 0.0
0.40625 -0.0625 0.0
0.40625 -0.125 0.0
0.375 -0.125 0.0
0.40625 -0.03125 0.0
0.4375 -0.03125 0.0
0.375 -0.03125 0.0
0.5 -0.03125 0.0
0.46875 -0.03125 0.0
0.4375 -0.25 0.0
0.46875 -0.25 0.0
0.46875 -0.21875 0.0
0.4375 -0.21875 0.0
0.4375 -0.1875 0.0
0.46875 -0.1875 0.0
0.5 -0.1875 0.0
0.5 -0.21875 0.0
0.5 -0.25 0.0
0.375 -0.1875 0.0
0.375 -0.21875 0.0
0.40625 -0.21875 0.0
0.40625 -0.1875 0.0
0.40625 -0.25 0.0
0.375 -0.25 0.0
0.40625 -0.15625 0.0
0.4375 -0.15625 0.0
0.375 -0.15625 0.0
0.5 -0.15625 0.0
0.46875 -0.15625 0.0
0.4375 -0.375 0.0
0.46875 -0.375 0.0
0.46875 -0.34375 0.0
0.4375 -0.34375 0.0
0.4375 -0.3125 0.0
0.46875 -0.3125 0.0
0.5 -0.3125 0.0
0.5 -0.34375 0.0
0.5 -0.375 0.0
0.375 -0.3125 0.0
0.375 -0.34375 0.0
0.40625 -0.34375 0.0
0.40625 -0.3125 0.0
0.40625 -0.375 0.0
0.375 -0.375 0.0
0.40625 -0.28125 0.0
0.4375 -0.28125 0.0
0.375 -0.28125 0.0
0.5 -0.28125 0.0
0.46875 -0.28125 0.0
0.4375 -0.5 0.0
0.46875 -0.5 0.0
0.46875 -0.46875 0.0
0.4375 -0.46875 0.0
0.4375 -0.4375 0.0
0.46875 -0.4375 0.0
0.5 -0.4375 0.0
0.5 -0.46875 0.0
0.5 -0.5 0.0
0.375 -0.4375 0.0
0.375 -0.46875 0.0
0.40625 -0.46875 0.0
0.40625 -0.4375 0.0
0.40625 -0.5 0.0
0.375 -0.5 0.0
0.40625 -0.40625 0.0
0.4375 -0.40625 0.0
0.375 -0.40625 0.0
0.5 -0.40625 0.0
0.46875 -0.40625 0.0
0.4375 -0.625 0.0
0.46875 -0.625 0.0
0.46875 -0.59375 0.0
0.4375 -0.59375 0.0
0.4375 -0.5625 0.0
0.46875 -0.5625 0.0
0.5 -0.5625 0.0
0.5 -0.59375 0.0
0.5 -0.625 0.0
0.375 -0.5625 0.0
0.375 -0.59375 0.0
0.40625 -0.59375 0.0
0.40625 -0.5625 0.0
0.40625 -0.625 0.0
0.375 -0.625 0.0
0.40625 -0.53125 0.0
0.4375 -0.53125 0.0
0.375 -0.53125 0.0
0.5 -0.53125 0.0
0.46875 -0.53125 0.0
0.4375 -0.75 0.0
0.46875 -0.75 0.0
0.46875 -0.71875 0.0
0.4375 -0.71875 0.0
0.4375 -0.6875 0.0
0.46875 -0.6875 0.0
0.5 -0.6875 0.0
0.5 -0.71875 0.0
0.5 -0.75 0.0
0.375 -0.6875 0.0
0.375 -0.71875 0.0
0.40625 -0.71875 0.0
0.40625 -0.6875 0.0
0.40625 -0.75 0.0
0.375 -0.75 0.0
0.40625 -0.65625 0.0
0.4375 -0.65625 0.0
0.375 -0.65625 0.0
0.5 -0.65625 0.0
0.46875 -0.65625 0.0
0.4375 -0.875 0.0
0.46875 -0.875 0.0
0.46875 -0.84375 0.0
0.4375 -0.84375 0.0
0.4375 -0.8125 0.0
0.46875 -0.8125 0.0
0.5 -0.8125 0.0
0.5 -0.84375 0.0
0.5 -0.875 0.0
0.375 -0.8125 0.0
0.375 -0.84375 0.0
0.40625 -0.84375 0.0
0.40625 -0.8125 0.0
0.40625 -0.875 0.0
0.375 -0.875 0.0
0.40625 -0.78125 0.0
0.4375 -0.78125 0.0
0.375 -0.78125 0.0
0.5 -0.78125 0.0
0.46875 -0.78125 0.0
0.4375 -1.0 0.0
0.46875 -1.0 0.0
0.46875 -0.96875 0.0
0.4375 -0.96875 0.0
0.4375 -0.9375 0.0
0.46875 -0.9375 0.0
0.5 -0.9375 0.0
0.5 -0.96875 0.0
0.5 -1.0 0.0
0.375 -0.9375 0.0
0.375 -0.96875 0.0
0.40625 -0.96875 0.0
0.40625 -0.9375 0.0
0.40625 -1.0 0.0
0.375 -1.0 0.0
0.40625 -0.90625 0.0
0.4375 -0.90625 0.0
0.375 -0.90625 0.0
0.5 -0.90625 0.0
0.46875 -0.90625 0.0
0.3125 0.875 0.0
0.34375 0.875 0.0
0.34375 0.90625 0.0
0.3125 0.90625 0.0
0.3125 0.9375 0.0
0.34375 0.9375 0.0
0.25 0.9375 0.0
0.25 0.90625 0.0
0.28125 0.90625 0.0
0.28125 0.9375 0.0
0.28125 0.875 0.0
0.25 0.875 0.0
0.3125 1.0 0.0
0.28125 1.0 0.0
0.28125 0.96875 0.0
0.3125 0.96875 0.0
0.25 0.96875 0.0
0.25 1.0 0.0
0.34375 0.96875 0.0
0.34375 1.0 0.0
0.3125 0.75 0.0
0.34375 0.75 0.0
0.34375 0.78125 0.0
0.3125 0.78125 0.0
0.3125 0.8125 0.0
0.34375 0.8125 0.0
0.25 0.8125 0.0
0.25 0.78125 0.0
0.28125 0.78125 0.0
0.28125 0.8125 0.0
0.28125 0.75 0.0
0.25 0.75 0.0
0.28125 0.84375 0.0
0.3125 0.84375 0.0
0.25 0.84375 0.0
0.34375 0.84375 0.0
0.3125 0.625 0.0
0.34375 0.625 0.0
0.34375 0.65625 0.0
0.3125 0.65625 0.0
0.3125 0.6875 0.0
0.34375 0.6875 0.0
0.25 0.6875 0.0
0.25 0.65625 0.0
0.28125 0.65625 0.0
0.28125 0.6875 0.0
0.28125 0.625 0.0
0.25 0.625 0.0
0.28125 0.71875 0.0
0.3125 0.71875 0.0
0.25 0.71875 0.0
0.34375 0.71875 0.0
0.3125 0.5 0.0
0.34375 0.5 0.0
0.34375 0.53125 0.0
0.3125 0.53125 0.0
0.3125 0.5625 0.0
0.34375 0.5625 0.0
0.25 0.5625 0.0
0.25 0.53125 0.0
0.28125 0.53125 0.0
0.28125 0.5625 0.0
0.28125 0.5 0.0
0.25 0.5 0.0
0.28125 0.59375 0.0
0.3125 0.59375 0.0
0.25 0.59375 0.0
0.34375 0.59375 0.0
0.3125 0.375 0.0
0.34375 0.375 0.0
0.34375 0.40625 0.0
0.3125 0.40625 0.0
0.3125 0.4375 0.0
0.34375 0.4375 0.0
0.25 0.4375 0.0
0.25 0.40625 0.0
0.28125 0.40625 0.0
0.28125 0.4375 0.0
0.28125 0.375 0.0
0.25 0.375 0.0
0.28125 0.46875 0.0
0.3125 0.46875 0.0
0.25 0.46875 0.0
0.34375 0.46875 0.0
0.3125 0.25 0.0
0.34375 0.25 0.0
0.34375 0.28125 0.0
0.3125 0.28125 0.0
0.3125 0.3125 0.0
0.34375 0.3125 0.0
0.25 0.3125 0.0
0.25 0.28125 0.0
0.28125 0.28125 0.0
0.28125 0.3125 0.0
0.28125 0.25 0.0
0.25 0.25 0.0
0.28125 0.34375 0.0
0.3125 0.34375 0.0
0.25 0.34375 0.0
0.34375 0.34375 0.0
0.3125 0.125 0.0
0.34375 0.125 0.0
0.34375 0.15625 0.0
0.3125 0.15625 0.0
0.3125 0.1875 0.0
0.34375 0.1875 0.0
0.25 0.1875 0.0
0.25 0.15625 0.0
0.28125 0.15625 0.0
0.28125 0.1875 0.0
0.28125 0.125 0.0
0.25 0.125 0.0
0.28125 0.21875 0.0
0.3125 0.21875 0.0
0.25 0.21875 0.0
0.34375 0.21875 0.0
0.3125 0.0 0.0
0.34375 0.0 0.0
0.34375 0.03125 0.0
0.3125 0.03125 0.0
0.3125 0.0625 0.0
0.34375 0.0625 0.0
0.25 0.0625 0.0
0.25 0.03125 0.0
0.28125 0.03125 0.0
0.28125 0.0625 0.0
0.28125 0.0 0.0
0.25 0.0 0.0
0.28125 0.09375 0.0
0.3125 0.09375 0.0
0.25 0.09375 0.0
0.34375 0.09375 0.0
0.3125 -0.125 0.0
0.34375 -0.125 0.0
0.34375 -0.09375 0.0
0.3125 -0.09375 0.0
0.3125 -0.0625 0.0
0.34375 -0.0625 0.0
0.25 -0.0625 0.0
0.25 -0.09375 0.0
0.28125 -0.09375 0.0
0.28125 -0.0625 0.0
0.28125 -0.125 0.0
0.25 -0.125 0.0
0.28125 -0.03125 0.0
0.3125 -0.03125 0.0
0.25 -0.03125 0.0
0.34375 -0.03125 0.0
0.3125 -0.25 0.0
0.34375 -0.25 0.0
0.34375 -0.21875 0.0
0.3125 -0.21875 0.0
0.3125 -0.1875 0.0
0.34375 -0.1875 0.0
0.25 -0.1875 0.0
0.25 -0.21875 0.0
0.28125 -0.21875 0.0
0.28125 -0.1875 0.0
0.28125 -0.25 0.0
0.25 -0.25 0.0
0.28125 -0.15625 0.0
0.3125 -0.15625 0.0
0.25 -0.15625 0.0
0.34375 -0.15625 0.0
0.3125 -0.375 0.0
0.34375 -0.375 0.0
0.34375 -0.34375 0.0
0.3125 -0.34375 0.0
0.3125 -0.3125 0.0
0.34375 -0.3125 0.0
0.25 -0.3125 0.0
0.25 -0.34375 0.0
0.28125 -0.34375 0.0
0.28125 -0.3125 0.0
0.28125 -0.375 0.0
0.25 -0.375 0.0
0.28125 -0.28125 0.0
0.3125 -0.28125 0.0
0.25 -0.28125 0.0
0.34375 -0.28125 0.0
0.3125 -0.5 0.0
0.34375 -0.5 0.0
0.34375 -0.46875 0.0
0.3125 -0.46875 0.0
0.3125 -0.4375 0.0
0.34375 -0.4375 0.0
0.25 -0.4375 0.0
0.25 -0.46875 0.0
0.28125 -0.46875 0.0
0.28125 -0.4375 0.0
0.28125 -0.5 0.0
0.25 -0.5 0.0
0.28125 -0.40625 0.0
0.3125 -0.40625 0.0
0.25 -0.40625 0.0
0.34375 -0.40625 0.0
0.3125 -0.625 0.0
0.34375 -0.625 0.0
0.34375 -0.59375 0.0
0.3125 -0.59375 0.0
0.3125 -0.5625 0.0
0.34375 -0.5625 0.0
0.25 -0.5625 0.0
0.25 -0.59375 0.0
0.28125 -0.59375 0.0
0.28125 -0.5625 0.0
0.28125 -0.625 0.0
0.25 -0.625 0.0
0.28125 -0.53125 0.0
0.3125 -0.53125 0.0
0.25 -0.53125 0.0
0.34375 -0.53125 0.0
0.3125 -0.75 0.0
0.34375 -0.75 0.0
0.34375 -0.71875 0.0
0.3125 -0.71875 0.0
0.3125 -0.6875 0.0
[...]
POINT_DATA 4225
SCALARS Radiance double
LOOKUP_TABLE default
0.717916171502
0.851402808641
0.717717908095
0.571355347631
0.424605793644
0.572108861201
0.717645398761
0.850526338531
0.960647409516
0.167151865334
0.284408840921
0.42311059114
0.286428712255
0.57080153879
0.42184929936
0.172800850775
0.0784804094969
0.169710653927
0.288818890648
0.0756952741873
0.0117624505507
0.57316522961
0.426465255284
0.291791536716
0.428889546197
1.08188206868
1.07965212753
1.08049436376
1.04181559332
0.963285458433
1.04037693315
1.0790352305
1.07835203976
1.03739385829
0.718556886397
0.85415272896
0.964565618144
0.853213996958
1.0432127329
0.965839653068
0.718203558489
0.852298123626
0.570380990506
1.03887316478
0.961985775425
0.852827330049
0.721335332758
0.852196751137
0.961488403724
1.03954385685
0.960631011359
0.851565942707
0.72102093162
0.577763558592
1.08451736091
1.08322344143
1.04055991019
1.08207579503
0.962330407855
1.04154640733
1.08321883961
1.08088832404
1.04458358799
0.95975096308
1.03849190227
0.292578123319
0.172658114057
0.293590903502
0.431099685254
0.57760282943
0.431646196557
0.29459506074
0.173987775899
0.0770957585876
0.854109019704
0.722383458699
0.577551347516
0.722012778239
0.430561969924
0.577522554914
0.853463479095
0.72166458431
0.963161598958
0.432200545306
0.577674506177
-0.0367540399239
-0.0539912797036
-0.0358870534084
0.00488779673009
0.0742013084486
0.00617731280988
-0.0350300144106
-0.0536771955812
-0.0542627328474
0.290522595238
0.168515159494
0.0727051214829
0.169924102856
0.00357107436441
0.0711728146841
0.291555647838
0.171304284162
0.430034024504
0.00744125593547
0.075664038032
-0.0267184967188
-0.0127617016414
-0.0275444568454
-0.0423657676644
-0.0537935686832
-0.0430158851952
-0.0283472004063
-0.0135227945881
-0.00228542960351
-0.0385183756176
-0.054874020678
-0.053521388326
-0.0545908822666
-0.0416851914423
-0.0532215549353
-0.0376311799666
-0.0542961959372
0.00222555968747
-0.0436371323015
-0.0540399794752
0.0066210561704
0.00585411855054
0.00660803938079
0.0048097275026
-0.0011786683575
0.00454275291731
0.00657841694816
0.00599069400651
0.0040149170104
-0.024995175223
-0.0104201295518
-0.00063241695674
-0.0112098434918
0.00506146035315
-9.27217928979e-05
-0.0258689700249
-0.0119905552943
-0.0409725413808
0.00426200994241
-0.00173000201629
4.51226879559e-05
-0.000623376957351
0.000153751039555
0.00151341428135
0.00360934326385
0.00169180844356
0.000267867518251
-0.000581228073155
-0.000795686503795
0.00659434000705
0.00536705037572
0.00339844414438
0.00554226640978
0.00133693915438
0.0031829090581
0.00661670045029
0.00570461227586
0.00529685002314
0.00187142161014
0.00381502665617
-0.000281999822148
-8.34777519051e-05
-0.000317160936801
-0.000565023753212
-0.000770569878118
-0.0006015730534
-0.000352810374323
-0.000107301912333
3.67244746041e-05
-0.000153444663946
-0.000711553488837
-0.000751329062971
-0.000688745842678
-0.000526899894277
-0.000727784120321
-5.74654380315e-05
-0.000659328093074
0.00116328480654
-0.000636272647703
-0.000785353516135
6.43039897855e-05
3.79267670916e-05
6.96610108323e-05
8.3107224788e-05
5.44779440485e-05
8.45893944168e-05
7.48853064676e-05
4.323685999e-05
1.45025554442e-05
-0.000213946008159
-2.18119776581e-05
6.1072017781e-05
-4.05408636285e-05
8.06618014601e-05
6.59450314663e-05
-0.000247423374445
-6.12069251912e-05
-0.000487568234815
8.52119328549e-05
4.63146361609e-05
-7.45091399284e-06
-6.37180424204e-06
-7.81000590646e-06
-4.4973018588e-06
8.1191339629e-06
-3.59184887175e-06
-8.00690968219e-06
-7.07673274186e-06
-4.02515079182e-06
5.2952859513e-05
2.33193898243e-05
5.41046155606e-06
2.79776145166e-05
-5.19137802124e-06
3.02247811406e-06
5.87461875876e-05
3.28897169365e-05
7.73151282349e-05
-2.36634426824e-06
1.10834564682e-05
4.36762393496e-07
6.66864221864e-07
3.43496666306e-07
-5.41243260867e-07
-2.65508611587e-06
-8.85241439128e-07
1.08283059119e-07
5.47708610469e-07
4.9158494271e-07
-6.72582449825e-06
-4.37690417355e-06
-2.21668432843e-06
-4.98297972294e-06
-4.09879807899e-07
-1.85911891947e-06
-7.08434723478e-06
-5.6253591577e-06
-5.71271423865e-06
-1.34022243114e-06
-3.33949117218e-06
2.09262428638e-08
1.94291461243e-08
1.54793978548e-07
1.59466239667e-07
4.09439080715e-07
2.89959817504e-07
1.03771495198e-07
4.64473140031e-08
2.01446882029e-10
3.80184744844e-07
4.07630323952e-07
2.22500919061e-07
4.44369145382e-07
9.65658752277e-08
2.42602355482e-07
3.53675412033e-07
6.24976425671e-07
-2.79083625681e-07
2.5978276623e-07
5.6495678792e-07
-2.94699201389e-08
7.66586334977e-09
-8.40434096822e-09
-3.81040785246e-08
-4.12948637578e-08
-1.29203282966e-08
2.26943257664e-08
6.82158519779e-09
1.70218759825e-08
-1.54238594688e-08
1.27167261024e-10
-5.24490447934e-08
-5.91636607731e-08
-5.07094657098e-08
-9.33777784459e-09
-3.83228638963e-08
-7.6385960871e-08
1.11851221605e-07
3.15137529979e-08
-6.12382809971e-09
-1.35120128728e-08
-6.00193215328e-09
1.43816794489e-08
-2.48220459545e-08
-2.51517687748e-08
-4.71162264367e-09
1.62242894624e-08
2.29086512398e-08
-1.83935082619e-09
2.59835382751e-08
2.01975802337e-08
-2.11730461821e-08
-1.07392468603e-08
4.79005569081e-09
3.08788698534e-08
-2.88267281451e-08
-1.7151303656e-08
-3.15558213721e-09
8.61424561696e-09
2.61027875723e-08
0.0
0.0
-1.96066170251e-08
-9.82036571223e-09
-1.55596973492e-09
-5.26447053585e-09
-1.75402876508e-09
2.08153583685e-09
0.0
8.24476574853e-09
1.60795604196e-08
2.1729979016e-08
8.37659490288e-09
0.0
0.0
6.17729195649e-09
-3.12436188255e-08
3.19650358921e-08
2.14665205997e-08
-7.77905401404e-09
0.16290709745
0.282620789622
0.164927119568
0.0712763759816
0.0077951279016
0.0733486760691
-0.0462779093309
-0.031575796438
0.00618740524221
-0.0306254123663
0.0693710508041
0.00470992202781
-0.045375893846
-0.0459081675974
-0.0459068747952
-0.0295214647249
-0.0457854014073
-0.0365352771643
0.00961257965182
-0.0281820311174
0.719411393049
0.85511669638
0.718962287757
0.569783700654
0.4197178093
0.570050863515
0.159171514925
0.277884730533
0.418755887
0.279408272239
0.569562040308
0.417827389194
0.161007300135
0.280973807032
0.0675623527737
0.420736767873
1.08702641244
1.08433636846
1.08578526847
1.04728212513
0.968403766511
1.04593786894
0.720425730874
0.858185773298
0.969705026078
0.857130496645
1.04861993268
0.971024579176
0.719899924388
0.856108332979
0.569375008629
0.967116820142
0.855439937313
0.72277992194
0.854766960372
0.96480132303
1.04344141489
0.963984668716
1.08943439011
1.08747736339
1.04435109454
1.08646382284
0.965612466333
1.0452342637
1.08824281695
1.08541643079
1.04995353675
1.04250643775
0.288419946517
0.167074906064
0.28947773818
0.429010645899
0.577543325746
0.429516645056
0.856840457451
0.724155665214
0.577598054459
0.723662713745
0.428516855959
0.577685942641
0.856130242925
0.723205266484
0.966418469298
0.577519083133
-0.0403232069584
-0.0551439577849
-0.0394158423155
-0.000558220480966
0.0679894378941
0.000849687701104
0.286259491356
0.162538498314
0.0663325842429
0.164089614488
-0.00199986158262
0.0646279428689
0.287347665636
0.165600703383
0.428036054532
0.0696019068759
-0.0231729575065
-0.00962196161072
-0.0240967212897
-0.0394441085448
-0.0525294913098
-0.0402261186221
-0.0421661080729
-0.0558546424663
-0.0521323299339
-0.0556364379066
-0.0386247233917
-0.0516974600712
-0.0412402030762
-0.055398788328
-0.00347693937067
-0.0528916636411
0.00649272859053
0.0051791053548
0.00655324261776
0.00571296151395
0.000961198875381
0.00551447845507
-0.0212482255497
-0.00718740676968
0.00147212891124
-0.00800444508643
0.00589072049841
0.00196989840933
-0.0222235276343
-0.00881638934713
-0.0377659145988
0.000439011274679
-0.000323872604325
-0.000727680286293
-0.000242382655356
0.00082716551405
0.00274089102186
0.000993088444023
0.00631070271901
0.00454102663425
0.00251595610461
0.00476563948187
0.000666428073893
0.00228978906584
0.0064120660397
0.00497849842796
0.00604626271309
0.00296348936039
-0.000150973034315
-5.03771135223e-06
-0.000181755614879
-0.000406864618677
-0.000669214662811
-0.000447508256386
-0.000462000449853
-0.000735330740281
-0.000634598229268
-0.000739562887822
-0.000365984407904
-0.000596937323904
-0.000397196156486
-0.000737069107238
0.000511838036853
-0.000700382486838
4.14956675948e-05
1.89983906871e-05
4.71773010752e-05
6.87392412046e-05
7.11951603897e-05
7.33309831953e-05
-9.48284852046e-05
3.32020843441e-05
7.17490943728e-05
2.25257067221e-05
6.36663973928e-05
7.09906839189e-05
-0.000121882357054
9.79795805158e-06
-0.000325409672529
6.92485689371e-05
-5.43146861975e-06
-3.69884108623e-06
-6.16393278649e-06
-5.99258058935e-06
-5.19511924054e-07
-5.98615247948e-06
3.06718865833e-05
8.52228372958e-06
-1.77531838483e-06
1.16512353902e-05
-5.84158668924e-06
-2.85179345546e-06
3.59928769893e-05
1.51162782377e-05
5.81676202908e-05
1.02826459072e-06
4.40739327587e-07
4.03012526141e-07
4.78532138157e-07
1.5855915095e-07
-9.79670611254e-07
8.05053222598e-10
-4.27278439829e-06
-2.11838044605e-06
-7.26630293422e-07
-2.55238920628e-06
1.65542784088e-07
-5.04504640964e-07
-4.81979628854e-06
-3.02099126825e-06
-5.62581545573e-06
-1.38313274041e-06
1.25155647197e-08
2.26703918324e-08
3.31076929819e-08
3.39138275477e-08
2.05970023789e-07
1.0773138186e-07
2.90953905988e-07
2.19408444609e-07
9.68260443127e-08
2.70927944808e-07
-8.66600303717e-09
4.83472515369e-08
3.09072242115e-07
3.52600932325e-07
1.7201635649e-07
2.86317907225e-07
-4.1346680629e-08
7.14254910074e-10
2.68766147715e-08
-1.33839577307e-08
-4.13474485106e-08
2.59956902301e-08
4.17850769997e-09
-2.65130615092e-08
-3.46050486551e-08
-6.29050965318e-08
-8.82128828746e-09
2.4630038019e-08
-3.54832520339e-08
-1.29464831396e-08
1.4999429237e-08
5.22432727901e-09
0.0
0.0
-1.80626598165e-08
-1.51126808482e-08
-1.39564501244e-08
-1.01772905032e-08
1.87061366824e-08
9.5442359803e-09
2.61111253285e-09
1.00973861243e-08
0.0
0.0
-1.87793612577e-08
-1.79084051553e-08
-6.97476410777e-09
3.50601076014e-09
-0.0467193322672
-0.032425479351
-0.0465381861603
-0.0452455345271
-0.0354037461442
-0.0455553032833
-0.00968926973913
-0.0212159681656
-0.0347461463837
-0.0219711605834
-0.0448733776184
-0.0340423435578
-0.0109243783239
-0.00177253909022
-0.0103187793728
-0.0226910371855
-0.00135895725614
0.00335250553065
-0.0360054525601
-0.0233650695823
0.155555373723
0.276376631389
0.157362654928
0.0640651392277
0.00195564651676
0.0658039792662
-0.0469147576003
-0.0346521866504
0.000622977163647
-0.0339460876173
0.0623250715838
-0.000701884915752
-0.0468408034292
-0.0332083730637
-0.0444493597642
0.00331054063744
0.7215898389
0.859277048762
0.720988707986
0.569081267675
0.416012673441
0.569215953087
0.151880699915
0.271788793153
0.415108747876
0.273339642382
0.568968937842
0.414199853022
0.15373224535
0.274865789934
0.0605695908846
0.416916483194
1.09173790255
1.08845464647
1.09059996482
1.05261234859
0.973729686373
1.0512841919
0.72291534725
0.862799666263
0.975120401415
0.861580307274
1.0539378962
0.976539852193
0.722231128052
0.860407369251
0.5688785359
0.972365297655
0.85833032763
0.724687794676
0.857572847536
0.96801584546
1.04691389788
0.967219526448
1.09391933455
1.09113505801
1.04770539895
1.0902874972
0.968807455339
1.04846083689
1.09284533584
1.08939254557
1.05526063883
1.04608938976
0.284027784164
0.160943879191
0.285153482778
0.427117186959
0.57797408504
0.427569170007
0.85993290314
0.726562585922
0.578181391154
0.725886437503
0.426680921099
0.578436212425
0.859115812246
0.725263168644
0.969594701565
0.577810223276
-0.0440416772902
-0.0560507335518
-0.0431002505508
-0.00654422067953
0.0610614489269
-0.0049911802264
0.281707636422
0.15585781315
0.0591918117433
0.15760804897
-0.00813786043843
0.0572590546218
0.282880072041
0.159301800504
0.426261404253
0.0628721582975
-0.0192196037254
-0.00636664790922
-0.0202468945152
-0.0359221965692
-0.0507020863943
-0.0368657504424
-0.0459411015785
-0.0564754262571
-0.050134766606
-0.0563646774218
-0.0349332123825
-0.0495159633975
-0.0449890711426
-0.0562218631878
-0.00977375782001
-0.0512218464153
0.00604423046977
0.00430517010149
0.00618826587634
0.00628415483634
0.00291754391321
0.00617798437286
-0.0170880042129
-0.00390045310972
0.00336264056711
-0.00472106325614
0.00636321341336
0.0037851952142
-0.018166463626
-0.00554384155099
-0.0338968729847
0.00245243777332
-0.000564495973184
-0.000724616733319
-0.000517882919882
0.000224610558507
0.001837705608
0.000364260613148
0.00569068048858
0.00353796200042
0.00161433528201
0.00380261151567
9.40184752679e-05
0.00139454088784
0.00587842894911
0.00405875457084
0.00641344689573
0.00206328738659
-4.74275655202e-05
4.17676404768e-05
-6.99613785741e-05
-0.00024660063449
-0.000514174216938
-0.000285451731595
-0.000628851310988
-0.000655130021122
-0.000470020779367
-0.000684179189538
-0.000209158339611
-0.000424781395
-0.000601583112822
-0.000707441537169
-2.67213407505e-05
-0.000556646827018
2.10285009726e-05
5.77196116318e-06
2.56187144146e-05
4.65574038489e-05
6.59589656477e-05
5.23916785617e-05
-9.85363883001e-06
5.55668628322e-05
6.21063242597e-05
5.28993790688e-05
4.07802208758e-05
5.74735015222e-05
-2.73614145215e-05
4.8310941717e-05
-0.000173555023448
6.90009880989e-05
-3.05037708055e-06
-1.61277318649e-06
-3.66999894747e-06
-4.70948602491e-06
-3.87629923734e-06
-5.21327909395e-06
1.29880236493e-05
2.09884930959e-07
-4.0144442288e-06
1.67750121011e-06
-4.2349412934e-06
-4.02092226383e-06
1.68050572615e-05
3.52423901637e-06
3.50627448095e-05
-3.53937552385e-06
2.91079366161e-07
1.96269428349e-07
3.17557281175e-07
2.45829284054e-07
-1.2191005237e-07
2.02825467942e-07
-1.99460691421e-06
-6.48722689684e-07
-6.04208820016e-08
-8.6550802824e-07
2.38950180596e-07
-6.57980598979e-09
-2.48867131433e-06
-1.1849997494e-06
-3.71114244603e-06
-2.65414202142e-07
-2.30503722441e-08
7.83441526218e-09
3.25763461342e-09
3.61905881864e-08
6.97960678722e-08
4.34011139394e-08
1.01631655328e-07
4.8675437457e-08
2.41068312349e-08
8.2417916036e-08
-2.89815285551e-08
1.92737777375e-08
2.01075692666e-07
1.30519704413e-07
2.02312312677e-07
8.38875791275e-08
0.0
0.0
1.99361390662e-08
4.50549518097e-10
-2.19630274741e-08
-8.39011267404e-09
3.54204803666e-09
-1.45333699667e-08
-4.01660869232e-08
1.00416180775e-09
0.0
0.0
-3.67826910532e-08
1.30992336234e-08
-3.05404615175e-08
2.9966654676e-08
-0.00838765778552
-0.0204322955793
-0.00904372925884
-0.000523541054071
0.00372581875563
-0.000940780154196
0.00421975125901
0.00499327954529
0.00389402824812
0.00501994019588
-0.000110949438491
0.00404786256234
0.00442700745332
0.00285289623336
0.00433465287473
0.00502819851686
0.00273077555022
0.0012458918851
0.00354461330074
0.00501608598632
-0.0469446266225
-0.0353350040831
-0.0469481262224
-0.0434671890322
-0.0325178655586
-0.0439795213975
-0.00705829619656
-0.0179474975153
-0.0317026817758
-0.0187954940593
-0.0429136031382
-0.0308536651964
-0.00772480015829
-0.0196244257484
0.000293829789576
-0.0332984323136
0.148056991241
0.270206191576
0.149991439484
0.0569746766
-0.00336307275218
0.0587885747967
-0.0468310358541
-0.0372805641568
-0.00470976364535
-0.0366475390036
0.0551220788686
-0.00607123188087
-0.0469056214981
-0.0359993261752
-0.0423187150963
-0.00202849433407
0.724426829921
0.864069822517
0.723645819763
0.56876584105
0.412353614121
0.56881045427
0.144027648879
0.265212205587
0.411411425666
0.266922980011
0.568746161803
0.410453698539
0.146070966909
0.268585952053
0.0532261748632
0.413282405869
1.09595142751
1.0919305658
1.09495607108
1.05789509653
0.979476498698
1.05657989341
0.726159171343
0.868235636866
0.980999637397
0.866782155508
1.05920511255
0.982563792788
0.725262823259
0.865395466068
0.568753612192
0.977990987649
0.861678393476
0.727297432373
0.860785592315
0.97115729188
1.04985033211
0.970377801912
1.09779814382
1.09394654809
1.05047682213
1.09334279265
0.971933732483
1.05105216119
1.09690060578
1.09266848631
1.06050883801
1.04917701606
0.279275898257
0.154045873539
0.28050749174
0.425475892438
0.579106469935
0.425859461507
0.863605770167
0.729921094507
0.57953190872
0.728969217393
0.425111318391
0.580025035026
0.862616542486
0.728097278428
0.972708010366
0.578742930922
-0.0478506518994
-0.0565500820688
-0.0468956918676
-0.0131790392427
0.0531849564528
-0.0114535706326
0.276701544502
0.148177789785
0.0510333436922
0.150212724579
-0.0149514885288
0.0487978718151
0.278008914468
0.152166384596
0.424766081023
0.0552583565452
-0.0148581013957
-0.00308473641763
-0.0159848504147
-0.0316737734233
-0.0481075605949
-0.0328109971823
-0.0497497700474
-0.0565076421311
-0.0473089110742
-0.0565716823123
-0.030483191285
-0.0464407729975
-0.0488031112991
-0.0565838458494
-0.0167723682625
-0.0488417091762
0.00524982670523
0.00326591162097
0.00548102075372
0.00642118583336
0.00455104517728
0.00643335640886
-0.0125398186676
-0.000698019208722
0.00488819182145
-0.00147994212615
0.00637555385261
0.0051902625696
-0.0137091483802
-0.00227673362514
-0.0292376922557
0.00418232931494
-0.000653787814379
-0.000620866316285
-0.000646260494052
-0.000234791110975
0.000971950319249
-0.000136597590048
0.00472494265922
0.00242180513162
0.00077236474924
0.00270600949226
-0.000320442226859
0.000582865074894
0.00499748970162
0.00298804566029
0.00629503329865
0.0011799251192
1.69545086086e-05
5.64512517378e-05
4.88587715214e-06
-0.000109421343334
-0.000333419870265
-0.00014021158573
-0.000640084196076
-0.000492814749238
-0.000288521729833
-0.000539005435287
-8.1499774948e-05
-0.000245052226545
-0.000651661423378
-0.000581963335407
-0.000392799827147
-0.000379011258871
6.8612917433e-06
-8.55485800918e-07
9.65718567112e-06
2.44180779403e-05
4.67584617185e-05
2.95586308009e-05
3.31853689001e-05
5.05373545424e-05
4.10271153938e-05
5.37743876576e-05
1.96883669052e-05
3.52647602248e-05
2.63458476972e-05
5.5791074963e-05
-5.67166868947e-05
5.23047860058e-05
-1.16393619664e-06
-4.63048537088e-07
-1.55875770386e-06
-2.57141407506e-06
-3.57932732907e-06
-3.15006534724e-06
2.71597158746e-06
-2.3214707188e-06
-3.15320980325e-06
-2.0780787666e-06
-2.05671417124e-06
-2.71593534214e-06
4.57271973811e-06
-1.60945425441e-06
1.54589438972e-05
-3.88497445755e-06
1.02097558465e-07
7.2360949336e-08
1.09290859862e-07
1.40783888896e-07
1.37234703739e-07
1.81124030603e-07
-6.24726839869e-07
-7.17673834929e-08
1.13287405438e-07
-1.464086557e-07
8.36091646698e-08
5.56584069391e-08
-8.59335669329e-07
-2.64147774628e-07
-1.63464462936e-06
6.46434447473e-08
0.0
0.0
4.36658092299e-08
1.57647489797e-08
5.87647882766e-09
5.79739937988e-09
3.32171669217e-08
-1.16588859192e-08
-2.73235943369e-08
-5.06276727069e-09
0.0
0.0
5.64509484424e-08
6.41106234889e-08
5.40714799859e-08
2.01484003356e-08
-0.054767290999
-0.0463574500328
-0.0212475168536
-0.0473000216214
-0.019576484631
0.0274727672179
0.097719917187
0.025301023484
-0.0226426851181
0.0936123095921
0.0234990303721
0.0954593746693
0.189470432388
0.191065445082
0.306112082269
0.575042101798
0.437496535662
0.306885867839
0.436978114359
0.192833093586
0.307458560903
0.105406647117
0.194722555326
0.100750353781
0.0300981676611
-0.011200118006
-0.0242562117484
-0.0380145056035
-0.0236587874175
-0.0384915118165
-0.0501191594988
-0.0552774593464
-0.0498798756112
-0.0375054662277
-0.0554406977308
-0.0495920414792
-0.0553868370322
-0.0491959132146
-0.0486636530578
-0.0248906681775
0.021953209406
-0.0238373616406
-0.0480459823349
-0.0550855596292
-0.0502881009547
0.00616777281329
0.00653295844407
0.00457068916699
0.00659580258952
0.00433946286765
-0.00102386543153
-0.0100890760035
-0.00062133140474
0.00478575193884
-0.00898707110308
-0.000228209878388
-0.00953791634718
-0.021814875932
-0.0224384237774
-0.0364167296216
-0.0492682105828
-0.0369714967638
-0.0230530906826
-0.0106421553946
-0.00143839181609
-0.000384433950132
0.00068397931129
0.00227444860184
0.000596055095379
0.00239142350269
0.00433171016109
0.00603974855817
0.00420491327654
0.00214763498785
0.00585525199488
0.00406731514239
0.00595320711375
0.00668768202025
0.00667084704758
0.00517692377667
0.000157704998386
0.00498726581148
0.00664075385163
0.00611232249359
0.00444436165413
-0.00027073704626
-0.000559416435453