# vtk DataFile Version 2.0
Packing Fraction Fields
ASCII
DATASET UNSTRUCTURED_GRID
POINTS 289 double
-0.875 -0.875 0.0
-1.0 -0.875 0.0
-1.0 -1.0 0.0
-0.875 -1.0 0.0
-0.875 -0.75 0.0
-1.0 -0.75 0.0
-0.875 -0.625 0.0
-1.0 -0.625 0.0
-0.875 -0.5 0.0
-1.0 -0.5 0.0
-0.875 -0.375 0.0
-1.0 -0.375 0.0
-0.875 -0.25 0.0
-1.0 -0.25 0.0
-0.875 -0.125 0.0
-1.0 -0.125 0.0
-0.875 0.0 0.0
-1.0 0.0 0.0
-0.875 0.125 0.0
-1.0 0.125 0.0
-0.875 0.25 0.0
-1.0 0.25 0.0
-0.875 0.375 0.0
-1.0 0.375 0.0
-0.875 0.5 0.0
-1.0 0.5 0.0
-0.875 0.625 0.0
-1.0 0.625 0.0
-0.875 0.75 0.0
-1.0 0.75 0.0
-0.875 0.875 0.0
-1.0 0.875 0.0
-0.875 1.0 0.0
-1.0 1.0 0.0
-0.75 -0.875 0.0
-0.75 -1.0 0.0
-0.75 -0.75 0.0
-0.75 -0.625 0.0
-0.75 -0.5 0.0
-0.75 -0.375 0.0
-0.75 -0.25 0.0
-0.75 -0.125 0.0
-0.75 0.0 0.0
-0.75 0.125 0.0
-0.75 0.25 0.0
-0.75 0.375 0.0
-0.75 0.5 0.0
-0.75 0.625 0.0
-0.75 0.75 0.0
-0.75 0.875 0.0
-0.75 1.0 0.0
-0.625 -0.875 0.0
-0.625 -1.0 0.0
-0.625 -0.75 0.0
-0.625 -0.625 0.0
-0.625 -0.5 0.0
-0.625 -0.375 0.0
-0.625 -0.25 0.0
-0.625 -0.125 0.0
-0.625 0.0 0.0
-0.625 0.125 0.0
-0.625 0.25 0.0
-0.625 0.375 0.0
-0.625 0.5 0.0
-0.625 0.625 0.0
-0.625 0.75 0.0
-0.625 0.875 0.0
-0.625 1.0 0.0
-0.5 -0.875 0.0
-0.5 -1.0 0.0
-0.5 -0.75 0.0
-0.5 -0.625 0.0
-0.5 -0.5 0.0
-0.5 -0.375 0.0
-0.5 -0.25 0.0
-0.5 -0.125 0.0
-0.5 0.0 0.0
-0.5 0.125 0.0
-0.5 0.25 0.0
-0.5 0.375 0.0
-0.5 0.5 0.0
-0.5 0.625 0.0
-0.5 0.75 0.0
-0.5 0.875 0.0
-0.5 1.0 0.0
-0.375 -0.875 0.0
-0.375 -1.0 0.0
-0.375 -0.75 0.0
-0.375 -0.625 0.0
-0.375 -0.5 0.0
-0.375 -0.375 0.0
-0.375 -0.25 0.0
-0.375 -0.125 0.0
-0.375 0.0 0.0
-0.375 0.125 0.0
-0.375 0.25 0.0
-0.375 0.375 0.0
-0.375 0.5 0.0
-0.375 0.625 0.0
-0.375 0.75 0.0
-0.375 0.875 0.0
-0.375 1.0 0.0
-0.24999999999999997 -0.875 0.0
-0.25 -1.0 0.0
-0.24999999999999997 -0.75 0.0
-0.24999999999999997 -0.625 0.0
-0.24999999999999997 -0.5 0.0
-0.24999999999999997 -0.375 0.0
-0.24999999999999997 -0.25 0.0
-0.24999999999999997 -0.125 0.0
-0.24999999999999997 0.0 0.0
-0.24999999999999997 0.125 0.0
-0.24999999999999997 0.25 0.0
-0.24999999999999997 0.375 0.0
-0.24999999999999997 0.5 0.0
-0.24999999999999997 0.625 0.0
-0.24999999999999997 0.75 0.0
-0.24999999999999997 0.875 0.0
-0.25 1.0 0.0
-0.12500000000000003 -0.875 0.0
-0.125 -1.0 0.0
-0.12500000000000003 -0.75 0.0
-0.12500000000000003 -0.625 0.0
-0.12500000000000003 -0.5 0.0
-0.12499999999999999 -0.375 0.0
-0.12499999999999999 -0.25 0.0
-0.12499999999999999 -0.125 0.0
-0.12499999999999999 0.0 0.0
-0.12499999999999999 0.125 0.0
-0.12499999999999999 0.25 0.0
-0.12499999999999999 0.375 0.0
-0.12499999999999999 0.5 0.0
-0.12499999999999999 0.625 0.0
-0.12499999999999999 0.75 0.0
-0.12499999999999999 0.875 0.0
-0.125 1.0 0.0
1.5139404881252134e-17 -0.875 0.0
0.0 -1.0 0.0
1.5139404881252134e-17 -0.75 0.0
1.5139404881252134e-17 -0.625 0.0
1.5139404881252134e-17 -0.5 0.0
1.5139404881252134e-17 -0.375 0.0
1.5139404881252134e-17 -0.25 0.0
1.5139404881252134e-17 -0.125 0.0
-1.261617073437678e-17 0.0 0.0
1.5139404881252134e-17 0.125 0.0
1.5139404881252134e-17 0.25 0.0
1.5139404881252134e-17 0.375 0.0
1.5139404881252134e-17 0.5 0.0
1.5139404881252134e-17 0.625 0.0
1.5139404881252134e-17 0.75 0.0
1.5139404881252134e-17 0.875 0.0
0.0 1.0 0.0
0.12500000000000003 -0.875 0.0
0.125 -1.0 0.0
0.12500000000000003 -0.75 0.0
0.12500000000000003 -0.625 0.0
0.12500000000000003 -0.5 0.0
0.12500000000000003 -0.375 0.0
0.12500000000000003 -0.25 0.0
0.12500000000000003 -0.125 0.0
0.12500000000000003 0.0 0.0
0.12500000000000003 0.125 0.0
0.12500000000000003 0.25 0.0
0.12500000000000003 0.375 0.0
0.12500000000000003 0.5 0.0
0.12500000000000003 0.625 0.0
0.12500000000000003 0.75 0.0
0.12500000000000003 0.875 0.0
0.125 1.0 0.0
0.25 -0.875 0.0
0.25 -1.0 0.0
0.25 -0.75 0.0
0.25 -0.625 0.0
0.25 -0.5 0.0
0.25 -0.375 0.0
0.25 -0.25 0.0
0.25 -0.125 0.0
0.25 0.0 0.0
0.25 0.125 0.0
0.25 0.25 0.0
0.25 0.375 0.0
0.25 0.5 0.0
0.25 0.625 0.0
0.25 0.75 0.0
0.25 0.875 0.0
0.25 1.0 0.0
0.375 -0.875 0.0
0.375 -1.0 0.0
0.375 -0.75 0.0
0.375 -0.625 0.0
0.375 -0.5 0.0
0.375 -0.375 0.0
0.375 -0.25 0.0
0.375 -0.125 0.0
0.375 0.0 0.0
0.375 0.125 0.0
0.375 0.25 0.0
0.375 0.375 0.0
0.375 0.5 0.0
0.375 0.625 0.0
0.375 0.75 0.0
0.375 0.875 0.0
0.375 1.0 0.0
0.5 -0.875 0.0
0.5 -1.0 0.0
0.5 -0.75 0.0
0.5 -0.625 0.0
0.5 -0.5 0.0
0.5 -0.375 0.0
0.5 -0.25 0.0
0.5 -0.125 0.0
0.5 0.0 0.0
0.5 0.125 0.0
0.5 0.25 0.0
0.5 0.375 0.0
0.5 0.5 0.0
0.5 0.625 0.0
0.5 0.75 0.0
0.5 0.875 0.0
0.5 1.0 0.0
0.625 -0.875 0.0
0.625 -1.0 0.0
0.625 -0.75 0.0
0.625 -0.625 0.0
0.625 -0.5 0.0
0.625 -0.375 0.0
0.625 -0.25 0.0
0.625 -0.125 0.0
0.625 0.0 0.0
0.625 0.125 0.0
0.625 0.25 0.0
0.625 0.375 0.0
0.625 0.5 0.0
0.625 0.625 0.0
0.625 0.75 0.0
0.625 0.875 0.0
0.625 1.0 0.0
0.75 -0.875 0.0
0.75 -1.0 0.0
0.75 -0.75 0.0
0.75 -0.625 0.0
0.75 -0.5 0.0
0.75 -0.375 0.0
0.75 -0.25 0.0
0.75 -0.125 0.0
0.75 0.0 0.0
0.75 0.125 0.0
0.75 0.25 0.0
0.75 0.375 0.0
0.75 0.5 0.0
0.75 0.625 0.0
0.75 0.75 0.0
0.75 0.875 0.0
0.75 1.0 0.0
0.875 -0.875 0.0
0.875 -1.0 0.0
0.875 -0.75 0.0
0.875 -0.625 0.0
0.875 -0.5 0.0
0.875 -0.375 0.0
0.875 -0.25 0.0
0.875 -0.125 0.0
0.875 0.0 0.0
0.875 0.125 0.0
0.875 0.25 0.0
0.875 0.375 0.0
0.875 0.5 0.0
0.875 0.625 0.0
0.875 0.75 0.0
0.875 0.875 0.0
0.875 1.0 0.0
1.0 -0.875 0.0
1.0 -1.0 0.0
1.0 -0.75 0.0
1.0 -0.625 0.0
1.0 -0.5 0.0
1.0 -0.375 0.0
1.0 -0.25 0.0
1.0 -0.125 0.0
1.0 0.0 0.0
1.0 0.125 0.0
1.0 0.25 0.0
1.0 0.375 0.0
1.0 0.5 0.0
1.0 0.625 0.0
1.0 0.75 0.0
1.0 0.875 0.0
1.0 1.0 0.0

POINT_DATA 289
SCALARS Radiance double
LOOKUP_TABLE default
1.6693573695458879e-06
0.0
0.0
0.0
-3.5380647757982185e-05
0.0
0.12499465088824613
0.0
-0.3749346698019362
0.0
0.37500939420807755
1.0
0.8749143885656656
1.0
0.9999861749247576
1.0
1.0000928385283092
1.0
1.0000179963539757
1.0
0.8749143783962466
1.0
1.374979013309758
1.0
0.6250649912801092
0.0
0.12502210492956484
0.0
-3.412190427251682e-05
0.0
-2.0365267890201456e-05
0.0
-2.3142373388454947e-06
0.0
3.549610016640958e-05
0.0
-0.12499340232682282
0.3748992955439831
-0.2500137670080688
-0.24984892548689122
0.3750221612828957
0.8748215094664138
0.9999694621900721
1.1251785101959773
0.6250380304411586
1.249849241576453
1.249957617026036
0.6250993059585094
0.125042233929205
-3.1890772478858686e-05
-3.606566187797321e-05
0.12499581221318495
0.0
-0.3748992074912148
0.2500135689877747
0.2498139128372864
-0.25002420985017015
-0.249756250088235
0.3750363154433452
0.7497357825298676
1.3749518204954807
0.7502437641739147
0.7500573046535536
1.2498147597512483
1.2499386371779966
0.6250974624242434
0.12505744801566163
6.083976754285574e-06
0.3749346305940988
0.0
-0.2500097810940408
-0.2498142402216234
0.25002131147619344
0.2497213875861179
-0.2500355019482324
-0.12467060653389149
5.081054934245144e-05
1.1246703826042441
1.2499349454154154
0.7502786320704771
0.7500744566945053
1.249816087121304
1.2499241431270303
0.6250596593785127
0.25006635658499543
0.3750046999769144
0.0
0.2498497975274408
-0.25001555060779024
-0.24972232313786286
0.2500293753456293
0.12463605564739849
0.12495348896833436
-0.4996052004803926
0.12506436308523194
1.124635219319327
1.249920644571142
0.750277839815975
0.7500874709276815
1.2498531986480488
1.124915632064585
0.7499923953748908
0.12508489340902654
0.0
0.37500881834984173
0.2497582866065852
-0.25002062932724867
-0.12463740023656945
-0.1249633756303147
0.49957091185057767
-5.5891293889558676e-05
-0.4995700964444631
0.12507494964877308
1.1246358006050134
1.2499104023251462
0.7502413316292827
0.8750948032844676
1.1249203698939851
0.9999137330227333
-3.2189702908911265e-06
0.0
0.12517638871990197
0.37501131988747843
0.12467361839017023
0.12497593690860404
-0.4995721179441787
4.201630510465032e-05
0.49953545873181915
-6.260686821587405e-05
-0.499570087730841
0.12508205669204678
1.1246715188379188
1.1249048626326565
0.8751748146211532
1.0000964262946974
1.000006267776346
-9.147869081898032e-05
0.0
-3.520472502729238e-06
0.25026098713542383
1.1145186877626044e-05
0.4996083118924777
-2.475857604296339e-05
-0.499536232668009
4.420111999987261e-05
0.49953474155386407
-6.561303304761453e-05
-0.49960484144079764
0.2500848955403745
0.9997368870837063
0.9999041793367298
1.0000889657127108
1.0000928831522782
-6.792324495043586e-07
0.0
-0.12517591516884172
0.37499986933622964
-0.12467410571657307
0.12500737166067097
0.4995724984422618
-2.235269762549651e-05
-0.49953526101525586
4.283468842119932e-05
0.4995688408687816
-0.12506533592580552
-0.374669160438096
0.3750839489817063
0.8748220595127891
0.9999077203870795
0.9999976283508576
0.1250842152965434
0.0
-0.3750059090263825
0.24975933069353007
0.2500067177106388
-0.12463832820139267
0.1250008676420448
0.49957115979533384
-1.7172675891623978e-05
-0.4995687570172369
0.12503881308481565
0.3746320154690514
-0.2500619675288739
-0.2497531309783718
0.3750797146381614
0.8749134867546147
0.9999142847892356
0.3750059849770797
0.0
-0.2498511844625624
-0.2500151510996066
0.2497237793064251
0.2500166431887721
-0.12463707991757095
0.1249920402816962
0.49960434760607425
-0.1250094879292242
-0.37463148426119847
0.25003251458882114
0.24971507644353733
-0.2500561647780838
-0.2498441023627291
0.3750729334374778
0.7499967239175906
0.3749355488620888
0.0
0.25001645908247333
-0.2498156140176671
-0.25002747722770746
0.2497222935894735
0.25002849178681746
-0.12466983835766005
0.24998119405658012
0.37466646597390085
-0.25000015587317737
-0.24971338874018148
0.25002466478628615
0.24980496926469056
-0.2500488733129959
-0.12492738711496208
0.2500658545728582
0.12498876994846134
0.0
0.37490000166770465
0.2500306427001995
-0.2498139068352306
-0.25004216994744316
0.2497547853783968
0.12504214506586647
0.00026861854132358127
0.37496924995068576
0.24974773381823973
-0.2499900981684114
-0.24980220236391978
0.25001660504777534
0.12488785740619898
-0.12504167682434614
9.677490685696386e-06
3.547313547135877e-05
0.0
0.12497341964441339
0.3748983329927549
0.2500477348157088
-0.24984613269167347
-0.1250582685588827
0.12481578831647823
5.6782165338106385e-05
0.12518812134699975
0.37495703137742614
0.24983547773248235
-0.24998053620598779
-0.12488420357517388
0.12500907421806864
-4.923996642175595e-05
-3.644198119264124e-05
1.5872359846483526e-05
0.0
3.6972334991740135e-05
0.1249553041614084
0.3749305486168916
0.12506573479711894
-0.12490709937904532
-7.481525224778877e-05
-0.00010387203654977419
7.084110706221887e-05
0.12510067021729365
0.37494566366880044
0.12491679130549319
-0.12497243833703695
5.308213219753567e-05
3.7097266311580063e-06
-1.5387625155213485e-05
-1.4462077311667668e-06
0.0
3.441451186774038e-05
4.589392899861096e-06
0.24993615874449981
0.24999174884269654
8.344942429771975e-05
1.2394087706571066e-05
-9.038874359807926e-05
-1.6389797192431393e-05
8.338729420431788e-05
0.25001952835136537
0.24993671652955057
-2.082584963486502e-05
3.308805555957022e-05
1.932831250000505e-05
1.940307606891236e-06
