# vtk DataFile Version 2.0
Packing Fraction Fields
ASCII
DATASET UNSTRUCTURED_GRID
POINTS 289 double
-0.875 -0.875 0.0
-1.0 -0.875 0.0
-1.0 -1.0 0.0
-0.875 -1.0 0.0
-0.875 -0.75 0.0
-1.0 -0.75 0.0
-0.875 -0.625 0.0
-1.0 -0.625 0.0
-0.875 -0.5 0.0
-1.0 -0.5 0.0
-0.875 -0.375 0.0
-1.0 -0.375 0.0
-0.875 -0.25 0.0
-1.0 -0.25 0.0
-0.875 -0.125 0.0
-1.0 -0.125 0.0
-0.875 0.0 0.0
-1.0 0.0 0.0
-0.875 0.125 0.0
-1.0 0.125 0.0
-0.875 0.25 0.0
-1.0 0.25 0.0
-0.875 0.375 0.0
-1.0 0.375 0.0
-0.875 0.5 0.0
-1.0 0.5 0.0
-0.875 0.625 0.0
-1.0 0.625 0.0
-0.875 0.75 0.0
-1.0 0.75 0.0
-0.875 0.875 0.0
-1.0 0.875 0.0
-0.875 1.0 0.0
-1.0 1.0 0.0
-0.75 -0.875 0.0
-0.75 -1.0 0.0
-0.75 -0.75 0.0
-0.75 -0.625 0.0
-0.75 -0.5 0.0
-0.75 -0.375 0.0
-0.75 -0.25 0.0
-0.75 -0.125 0.0
-0.75 0.0 0.0
-0.75 0.125 0.0
-0.75 0.25 0.0
-0.75 0.375 0.0
-0.75 0.5 0.0
-0.75 0.625 0.0
-0.75 0.75 0.0
-0.75 0.875 0.0
-0.75 1.0 0.0
-0.625 -0.875 0.0
-0.625 -1.0 0.0
-0.625 -0.75 0.0
-0.625 -0.625 0.0
-0.625 -0.5 0.0
-0.625 -0.375 0.0
-0.625 -0.25 0.0
-0.625 -0.125 0.0
-0.625 0.0 0.0
-0.625 0.125 0.0
-0.625 0.25 0.0
-0.625 0.375 0.0
-0.625 0.5 0.0
-0.625 0.625 0.0
-0.625 0.75 0.0
-0.625 0.875 0.0
-0.625 1.0 0.0
-0.5 -0.875 0.0
-0.5 -1.0 0.0
-0.5 -0.75 0.0
-0.5 -0.625 0.0
-0.5 -0.5 0.0
-0.5 -0.375 0.0
-0.5 -0.25 0.0
-0.5 -0.125 0.0
-0.5 0.0 0.0
-0.5 0.125 0.0
-0.5 0.25 0.0
-0.5 0.375 0.0
-0.5 0.5 0.0
-0.5 0.625 0.0
-0.5 0.75 0.0
-0.5 0.875 0.0
-0.5 1.0 0.0
-0.375 -0.875 0.0
-0.375 -1.0 0.0
-0.375 -0.75 0.0
-0.375 -0.625 0.0
-0.375 -0.5 0.0
-0.375 -0.375 0.0
-0.375 -0.25 0.0
-0.375 -0.125 0.0
-0.375 0.0 0.0
-0.375 0.125 0.0
-0.375 0.25 0.0
-0.375 0.375 0.0
-0.375 0.5 0.0
-0.375 0.625 0.0
-0.375 0.75 0.0
-0.375 0.875 0.0
-0.375 1.0 0.0
-0.24999999999999997 -0.875 0.0
-0.25 -1.0 0.0
-0.24999999999999997 -0.75 0.0
-0.24999999999999997 -0.625 0.0
-0.24999999999999997 -0.5 0.0
-0.24999999999999997 -0.375 0.0
-0.24999999999999997 -0.25 0.0
-0.24999999999999997 -0.125 0.0
-0.24999999999999997 0.0 0.0
-0.24999999999999997 0.125 0.0
-0.24999999999999997 0.25 0.0
-0.24999999999999997 0.375 0.0
-0.24999999999999997 0.5 0.0
-0.24999999999999997 0.625 0.0
-0.24999999999999997 0.75 0.0
-0.24999999999999997 0.875 0.0
-0.25 1.0 0.0
-0.12500000000000003 -0.875 0.0
-0.125 -1.0 0.0
-0.12500000000000003 -0.75 0.0
-0.12500000000000003 -0.625 0.0
-0.12500000000000003 -0.5 0.0
-0.12499999999999999 -0.375 0.0
-0.12499999999999999 -0.25 0.0
-0.12499999999999999 -0.125 0.0
-0.12499999999999999 0.0 0.0
-0.12499999999999999 0.125 0.0
-0.12499999999999999 0.25 0.0
-0.12499999999999999 0.375 0.0
-0.12499999999999999 0.5 0.0
-0.12499999999999999 0.625 0.0
-0.12499999999999999 0.75 0.0
-0.12499999999999999 0.875 0.0
-0.125 1.0 0.0
1.5139404881252134e-17 -0.875 0.0
0.0 -1.0 0.0
1.5139404881252134e-17 -0.75 0.0
1.5139404881252134e-17 -0.625 0.0
1.5139404881252134e-17 -0.5 0.0
1.5139404881252134e-17 -0.375 0.0
1.5139404881252134e-17 -0.25 0.0
1.5139404881252134e-17 -0.125 0.0
-1.261617073437678e-17 0.0 0.0
1.5139404881252134e-17 0.125 0.0
1.5139404881252134e-17 0.25 0.0
1.5139404881252134e-17 0.375 0.0
1.5139404881252134e-17 0.5 0.0
1.5139404881252134e-17 0.625 0.0
1.5139404881252134e-17 0.75 0.0
1.5139404881252134e-17 0.875 0.0
0.0 1.0 0.0
0.12500000000000003 -0.875 0.0
0.125 -1.0 0.0
0.12500000000000003 -0.75 0.0
0.12500000000000003 -0.625 0.0
0.12500000000000003 -0.5 0.0
0.12500000000000003 -0.375 0.0
0.12500000000000003 -0.25 0.0
0.12500000000000003 -0.125 0.0
0.12500000000000003 0.0 0.0
0.12500000000000003 0.125 0.0
0.12500000000000003 0.25 0.0
0.12500000000000003 0.375 0.0
0.12500000000000003 0.5 0.0
0.12500000000000003 0.625 0.0
0.12500000000000003 0.75 0.0
0.12500000000000003 0.875 0.0
0.125 1.0 0.0
0.25 -0.875 0.0
0.25 -1.0 0.0
0.25 -0.75 0.0
0.25 -0.625 0.0
0.25 -0.5 0.0
0.25 -0.375 0.0
0.25 -0.25 0.0
0.25 -0.125 0.0
0.25 0.0 0.0
0.25 0.125 0.0
0.25 0.25 0.0
0.25 0.375 0.0
0.25 0.5 0.0
0.25 0.625 0.0
0.25 0.75 0.0
0.25 0.875 0.0
0.25 1.0 0.0
0.375 -0.875 0.0
0.375 -1.0 0.0
0.375 -0.75 0.0
0.375 -0.625 0.0
0.375 -0.5 0.0
0.375 -0.375 0.0
0.375 -0.25 0.0
0.375 -0.125 0.0
0.375 0.0 0.0
0.375 0.125 0.0
0.375 0.25 0.0
0.375 0.375 0.0
0.375 0.5 0.0
0.375 0.625 0.0
0.375 0.75 0.0
0.375 0.875 0.0
0.375 1.0 0.0
0.5 -0.875 0.0
0.5 -1.0 0.0
0.5 -0.75 0.0
0.5 -0.625 0.0
0.5 -0.5 0.0
0.5 -0.375 0.0
0.5 -0.25 0.0
0.5 -0.125 0.0
0.5 0.0 0.0
0.5 0.125 0.0
0.5 0.25 0.0
0.5 0.375 0.0
0.5 0.5 0.0
0.5 0.625 0.0
0.5 0.75 0.0
0.5 0.875 0.0
0.5 1.0 0.0
0.625 -0.875 0.0
0.625 -1.0 0.0
0.625 -0.75 0.0
0.625 -0.625 0.0
0.625 -0.5 0.0
0.625 -0.375 0.0
0.625 -0.25 0.0
0.625 -0.125 0.0
0.625 0.0 0.0
0.625 0.125 0.0
0.625 0.25 0.0
0.625 0.375 0.0
0.625 0.5 0.0
0.625 0.625 0.0
0.625 0.75 0.0
0.625 0.875 0.0
0.625 1.0 0.0
0.75 -0.875 0.0
0.75 -1.0 0.0
0.75 -0.75 0.0
0.75 -0.625 0.0
0.75 -0.5 0.0
0.75 -0.375 0.0
0.75 -0.25 0.0
0.75 -0.125 0.0
0.75 0.0 0.0
0.75 0.125 0.0
0.75 0.25 0.0
0.75 0.375 0.0
0.75 0.5 0.0
0.75 0.625 0.0
0.75 0.75 0.0
0.75 0.875 0.0
0.75 1.0 0.0
0.875 -0.875 0.0
0.875 -1.0 0.0
0.875 -0.75 0.0
0.875 -0.625 0.0
0.875 -0.5 0.0
0.875 -0.375 0.0
0.875 -0.25 0.0
0.875 -0.125 0.0
0.875 0.0 0.0
0.875 0.125 0.0
0.875 0.25 0.0
0.875 0.375 0.0
0.875 0.5 0.0
0.875 0.625 0.0
0.875 0.75 0.0
0.875 0.875 0.0
0.875 1.0 0.0
1.0 -0.875 0.0
1.0 -1.0 0.0
1.0 -0.75 0.0
1.0 -0.625 0.0
1.0 -0.5 0.0
1.0 -0.375 0.0
1.0 -0.25 0.0
1.0 -0.125 0.0
1.0 0.0 0.0
1.0 0.125 0.0
1.0 0.25 0.0
1.0 0.375 0.0
1.0 0.5 0.0
1.0 0.625 0.0
1.0 0.75 0.0
1.0 0.875 0.0
1.0 1.0 0.0

POINT_DATA 289
SCALARS Radiance double
LOOKUP_TABLE default
0.010814790063388218
0.0
0.0
0.0
0.06278523338782814
0.0
-0.043421057312012186
0.0
-1.4324799908907304
0.0
3.5121304630919976
1.0
9.60552558850641
1.0
11.853925880186035
1.0
12.287626988401733
1.0
12.114650010848807
1.0
12.068173714601889
1.0
13.39820285480634
1.0
8.45820521400245
0.0
2.3920866674130075
0.0
0.1731315913934346
0.0
-0.2654853497413226
0.0
-0.15398105926479277
0.0
-0.006258771751921184
0.0
0.07197339403869119
0.2027360398209747
-1.0291881592882526
-0.4386431384665434
4.053099150837973
8.90127862747819
11.583358910960467
12.31445725685429
12.116246221218324
13.114632348407822
12.393456865648522
7.887695468093837
3.1041217066161826
0.5130746289142122
-0.24430914743938975
-0.01925795774941257
0.0
0.011576429669951318
0.26604381974953134
-0.24439266382576894
-1.1491535474647465
0.19299029721570127
4.217233924263654
8.578717778243787
11.332580925355877
12.124874657662495
12.663799503728525
13.301479729723868
11.760140182082713
7.700931306806594
3.4926183597797764
0.9779917687570142
-0.01550830332183575
0.0
-0.04068472054531571
0.1526983495501767
0.19166249632193277
-0.5599342274211918
-1.0437785408589921
0.57947729725212
4.316803407197233
8.3889620255136
11.002197002526463
12.17035847376465
13.049011355507885
13.251885950475598
11.362026305092858
7.61050539438237
3.9721525973433685
-0.003747437816705299
0.0
-0.04855000398531141
0.016113791411456222
0.22656177082044582
0.03426902180507945
-0.7318811880876588
-0.905264503204104
0.8493180052840418
4.408376947842615
8.183442478584084
10.77203897181381
12.28695172095633
13.266305480715696
13.135303136464861
11.051059283693832
7.703080184152217
0.0047752536919667375
0.0
-0.02640557748100686
-0.05023866065459537
0.08970009729543174
0.2286461797511155
-0.11840353627721535
-0.822211580039771
-0.7728132705372771
1.0705357861305458
4.4556373865438985
7.996892810992649
10.64001263369596
12.397194066072055
13.36835167980824
12.941916161963297
10.80620478926383
0.006379594671061597
0.0
-0.0021861048406745607
-0.04695412739247112
-0.024049309333516396
0.14600288887744806
0.19104237335411162
-0.2469886947150575
-0.8696467073628124
-0.642275948960851
1.2482494660958159
4.466612652607662
7.851529694170601
10.572329915004484
12.479146317213067
13.337469348267668
12.597483321298975
0.003663067975170762
0.0
0.00911605957676044
-0.016836034630074225
-0.05453038602257323
0.013663624776640215
0.17933937478677023
0.135937686244096
-0.35350038207269635
-0.8876236434212788
-0.5171839517051097
1.3849630879618198
4.460286013056004
7.750248307017764
10.545430018159983
12.483761685643536
13.020406006635476
0.0005562415271234336
0.0
0.008381659744568639
0.005771069172649855
-0.03176311733937446
-0.04940363996505265
0.05185345865492286
0.19363596232831065
0.07359136817085034
-0.4400750908843848
-0.8843179858274707
-0.40333908108339006
1.488591152107749
4.452465088100796
7.693766616932116
10.513240022429786
12.189979579263708
-0.0009709981416823502
0.0
0.003125268321471687
0.011337996824782412
-0.0020883573049439667
-0.042618490403984736
-0.035576607835245536
0.08560655404517348
0.19335442938739497
0.00960290410439795
-0.508369232704607
-0.8673516267580094
-0.30393694028775853
1.5700534399254553
4.461316962250473
7.66685896027684
10.239317679018335
-0.000957651050136487
0.0
-0.0007906454994209879
0.00656310917313578
0.011362393578681036
-0.01182185708927437
-0.04804772088613538
-0.01675691560870927
0.11294601068925139
0.1821511453871084
-0.052251060988789504
-0.5608326071662277
-0.843579803054272
-0.2183998295099175
1.6491859286470854
4.506176506227998
7.47697559782801
-0.0003647985706862534
0.0
-0.0018029489299023521
0.0006084825272450342
0.009590077580384914
0.008598521952049286
-0.02137295178761578
-0.04826875385185293
0.004242701195455575
0.13331612850724409
0.16324138557817758
-0.10984246824418512
-0.6010645491854911
-0.8183080117770677
-0.13510916666006112
1.7673756842288246
4.4790875535987755
9.304930811339886e-05
0.0
-0.001045928206024184
-0.002069624620458116
0.0028037757964301966
0.011411074093258337
0.003783874375734727
-0.029366861344726346
-0.04395412738964694
0.02544406238450772
0.14676029500572474
0.13913846009260475
-0.16303180368332207
-0.6341525346471756
-0.7890449866446756
-0.006844128864557743
1.9140611312679954
0.00019411269561992687
0.0
-0.00010262967904977378
-0.0017618342037190675
-0.0015985668351299067
0.005236056385217972
0.01161759549084926
-0.0022703184714008926
-0.03499274518361912
-0.03578140150943688
0.04561568255879239
0.15363284624569912
0.11071359956214875
-0.2158852191700515
-0.6636296016311027
-0.7155899917484355
0.23919647473871838
0.00010114033946174365
0.0
0.0003002957910890304
-0.000532250689791567
-0.002209820230660249
-0.00039419017966131343
0.007343384604020721
0.010005870439889906
-0.008949856340660946
-0.037548424027856984
-0.023681225305243622
0.06455305036822029
0.15342734364040042
0.07363684119184469
-0.2801442239791767
-0.665968201916813
-0.4765333620106663
9.180986515208323e-06
0.0
0.00022126477481695944
0.0001730802354311841
-0.001076518103982531
-0.0020797148370717377
0.0014981084738979885
0.008587639506597921
0.006020447441331773
-0.01611221725628789
-0.035748504024026795
-0.005231158691793887
0.08400840880656306
0.14118840770229046
0.008400322883766229
-0.36809469638086245
-0.5213809204929417
