# vtk DataFile Version 2.0
Packing Fraction Fields
ASCII
DATASET UNSTRUCTURED_GRID
POINTS 4225 double
0.4375 0.875 0.0
0.46875 0.875 0.0
0.46875 0.90625 0.0
0.4375 0.90625 0.0
0.4375 0.9375 0.0
0.46875 0.9375 0.0
0.5 0.9375 0.0
0.5 0.90625 0.0
0.5 0.875 0.0
0.375 0.9375 0.0
0.375 0.90625 0.0
0.40625 0.90625 0.0
0.40625 0.9375 0.0
0.40625 0.875 0.0
0.375 0.875 0.0
0.4375 1.0 0.0
0.40625 1.0 0.0
0.40625 0.96875 0.0
0.4375 0.96875 0.0
0.375 0.96875 0.0
0.375 1.0 0.0
0.5 0.96875 0.0
0.46875 0.96875 0.0
0.46875 1.0 0.0
0.5 1.0 0.0
0.4375 0.75 0.0
0.46875 0.75 0.0
0.46875 0.78125 0.0
0.4375 0.78125 0.0
0.4375 0.8125 0.0
0.46875 0.8125 0.0
0.5 0.8125 0.0
0.5 0.78125 0.0
0.5 0.75 0.0
0.375 0.8125 0.0
0.375 0.78125 0.0
0.40625 0.78125 0.0
0.40625 0.8125 0.0
0.40625 0.75 0.0
0.375 0.75 0.0
0.40625 0.84375 0.0
0.4375 0.84375 0.0
0.375 0.84375 0.0
0.5 0.84375 0.0
0.46875 0.84375 0.0
0.4375 0.625 0.0
0.46875 0.625 0.0
0.46875 0.65625 0.0
0.4375 0.65625 0.0
0.4375 0.6875 0.0
0.46875 0.6875 0.0
0.5 0.6875 0.0
0.5 0.65625 0.0
0.5 0.625 0.0
0.375 0.6875 0.0
0.375 0.65625 0.0
0.40625 0.65625 0.0
0.40625 0.6875 0.0
0.40625 0.625 0.0
0.375 0.625 0.0
0.40625 0.71875 0.0
0.4375 0.71875 0.0
0.375 0.71875 0.0
0.5 0.71875 0.0
0.46875 0.71875 0.0
0.4375 0.5 0.0
0.46875 0.5 0.0
0.46875 0.53125 0.0
0.4375 0.53125 0.0
0.4375 0.5625 0.0
0.46875 0.5625 0.0
0.5 0.5625 0.0
0.5 0.53125 0.0
0.5 0.5 0.0
0.375 0.5625 0.0
0.375 0.53125 0.0
0.40625 0.53125 0.0
0.40625 0.5625 0.0
0.40625 0.5 0.0
0.375 0.5 0.0
0.40625 0.59375 0.0
0.4375 0.59375 0.0
0.375 0.59375 0.0
0.5 0.59375 0.0
0.46875 0.59375 0.0
0.4375 0.375 0.0
0.46875 0.375 0.0
0.46875 0.40625 0.0
0.4375 0.40625 0.0
0.4375 0.4375 0.0
0.46875 0.4375 0.0
0.5 0.4375 0.0
0.5 0.40625 0.0
0.5 0.375 0.0
0.375 0.4375 0.0
0.375 0.40625 0.0
0.40625 0.40625 0.0
0.40625 0.4375 0.0
0.40625 0.375 0.0
0.375 0.375 0.0
0.40625 0.46875 0.0
0.4375 0.46875 0.0
0.375 0.46875 0.0
0.5 0.46875 0.0
0.46875 0.46875 0.0
0.4375 0.25 0.0
0.46875 0.25 0.0
0.46875 0.28125 0.0
0.4375 0.28125 0.0
0.4375 0.3125 0.0
0.46875 0.3125 0.0
0.5 0.3125 0.0
0.5 0.28125 0.0
0.5 0.25 0.0
0.375 0.3125 0.0
0.375 0.28125 0.0
0.40625 0.28125 0.0
0.40625 0.3125 0.0
0.40625 0.25 0.0
0.375 0.25 0.0
0.40625 0.34375 0.0
0.4375 0.34375 0.0
0.375 0.34375 0.0
0.5 0.34375 0.0
0.46875 0.34375 0.0
0.4375 0.125 0.0
0.46875 0.125 0.0
0.46875 0.15625 0.0
0.4375 0.15625 0.0
0.4375 0.1875 0.0
0.46875 0.1875 0.0
0.5 0.1875 0.0
0.5 0.15625 0.0
0.5 0.125 0.0
0.375 0.1875 0.0
0.375 0.15625 0.0
0.40625 0.15625 0.0
0.40625 0.1875 0.0
0.40625 0.125 0.0
0.375 0.125 0.0
0.40625 0.21875 0.0
0.4375 0.21875 0.0
0.375 0.21875 0.0
0.5 0.21875 0.0
0.46875 0.21875 0.0
0.4375 0.0 0.0
0.46875 0.0 0.0
0.46875 0.03125 0.0
0.4375 0.03125 0.0
0.4375 0.0625 0.0
0.46875 0.0625 0.0
0.5 0.0625 0.0
0.5 0.03125 0.0
0.5 0.0 0.0
0.375 0.0625 0.0
0.375 0.03125 0.0
0.40625 0.03125 0.0
0.40625 0.0625 0.0
0.40625 0.0 0.0
0.375 0.0 0.0
0.40625 0.09375 0.0
0.4375 0.09375 0.0
0.375 0.09375 0.0
0.5 0.09375 0.0
0.46875 0.09375 0.0
0.4375 -0.125 0.0
0.46875 -0.125 0.0
0.46875 -0.09375 0.0
0.4375 -0.09375 0.0
0.4375 -0.0625 0.0
0.46875 -0.0625 0.0
0.5 -0.0625 0.0
0.5 -0.09375 0.0
0.5 -0.125 0.0
0.375 -0.0625 0.0
0.375 -0.09375 0.0
0.40625 -0.09375 0.0
0.40625 -0.0625 0.0
0.40625 -0.125 0.0
0.375 -0.125 0.0
0.40625 -0.03125 0.0
0.4375 -0.03125 0.0
0.375 -0.03125 0.0
0.5 -0.03125 0.0
0.46875 -0.03125 0.0
0.4375 -0.25 0.0
0.46875 -0.25 0.0
0.46875 -0.21875 0.0
0.4375 -0.21875 0.0
0.4375 -0.1875 0.0
0.46875 -0.1875 0.0
0.5 -0.1875 0.0
0.5 -0.21875 0.0
0.5 -0.25 0.0
0.375 -0.1875 0.0
0.375 -0.21875 0.0
0.40625 -0.21875 0.0
0.40625 -0.1875 0.0
0.40625 -0.25 0.0
0.375 -0.25 0.0
0.40625 -0.15625 0.0
0.4375 -0.15625 0.0
0.375 -0.15625 0.0
0.5 -0.15625 0.0
0.46875 -0.15625 0.0
0.4375 -0.375 0.0
0.46875 -0.375 0.0
0.46875 -0.34375 0.0
0.4375 -0.34375 0.0
0.4375 -0.3125 0.0
0.46875 -0.3125 0.0
0.5 -0.3125 0.0
0.5 -0.34375 0.0
0.5 -0.375 0.0
0.375 -0.3125 0.0
0.375 -0.34375 0.0
0.40625 -0.34375 0.0
0.40625 -0.3125 0.0
0.40625 -0.375 0.0
0.375 -0.375 0.0
0.40625 -0.28125 0.0
0.4375 -0.28125 0.0
0.375 -0.28125 0.0
0.5 -0.28125 0.0
0.46875 -0.28125 0.0
0.4375 -0.5 0.0
0.46875 -0.5 0.0
0.46875 -0.46875 0.0
0.4375 -0.46875 0.0
0.4375 -0.4375 0.0
0.46875 -0.4375 0.0
0.5 -0.4375 0.0
0.5 -0.46875 0.0
0.5 -0.5 0.0
0.375 -0.4375 0.0
0.375 -0.46875 0.0
0.40625 -0.46875 0.0
0.40625 -0.4375 0.0
0.40625 -0.5 0.0
0.375 -0.5 0.0
0.40625 -0.40625 0.0
0.4375 -0.40625 0.0
0.375 -0.40625 0.0
0.5 -0.40625 0.0
0.46875 -0.40625 0.0
0.4375 -0.625 0.0
0.46875 -0.625 0.0
0.46875 -0.59375 0.0
0.4375 -0.59375 0.0
0.4375 -0.5625 0.0
0.46875 -0.5625 0.0
0.5 -0.5625 0.0
0.5 -0.59375 0.0
0.5 -0.625 0.0
0.375 -0.5625 0.0
0.375 -0.59375 0.0
0.40625 -0.59375 0.0
0.40625 -0.5625 0.0
0.40625 -0.625 0.0
0.375 -0.625 0.0
0.40625 -0.53125 0.0
0.4375 -0.53125 0.0
0.375 -0.53125 0.0
0.5 -0.53125 0.0
0.46875 -0.53125 0.0
0.4375 -0.75 0.0
0.46875 -0.75 0.0
0.46875 -0.71875 0.0
0.4375 -0.71875 0.0
0.4375 -0.6875 0.0
0.46875 -0.6875 0.0
0.5 -0.6875 0.0
0.5 -0.71875 0.0
0.5 -0.75 0.0
0.375 -0.6875 0.0
0.375 -0.71875 0.0
0.40625 -0.71875 0.0
0.40625 -0.6875 0.0
0.40625 -0.75 0.0
0.375 -0.75 0.0
0.40625 -0.65625 0.0
0.4375 -0.65625 0.0
0.375 -0.65625 0.0
0.5 -0.65625 0.0
0.46875 -0.65625 0.0
0.4375 -0.875 0.0
0.46875 -0.875 0.0
0.46875 -0.84375 0.0
0.4375 -0.84375 0.0
0.4375 -0.8125 0.0
0.46875 -0.8125 0.0
0.5 -0.8125 0.0
0.5 -0.84375 0.0
0.5 -0.875 0.0
0.375 -0.8125 0.0
0.375 -0.84375 0.0
0.40625 -0.84375 0.0
0.40625 -0.8125 0.0
0.40625 -0.875 0.0
0.375 -0.875 0.0
0.40625 -0.78125 0.0
0.4375 -0.78125 0.0
0.375 -0.78125 0.0
0.5 -0.78125 0.0
0.46875 -0.78125 0.0
0.4375 -1.0 0.0
0.46875 -1.0 0.0
0.46875 -0.96875 0.0
0.4375 -0.96875 0.0
0.4375 -0.9375 0.0
0.46875 -0.9375 0.0
0.5 -0.9375 0.0
0.5 -0.96875 0.0
0.5 -1.0 0.0
0.375 -0.9375 0.0
0.375 -0.96875 0.0
0.40625 -0.96875 0.0
0.40625 -0.9375 0.0
0.40625 -1.0 0.0
0.375 -1.0 0.0
0.40625 -0.90625 0.0
0.4375 -0.90625 0.0
0.375 -0.90625 0.0
0.5 -0.90625 0.0
0.46875 -0.90625 0.0
0.3125 0.875 0.0
0.34375 0.875 0.0
0.34375 0.90625 0.0
0.3125 0.90625 0.0
0.3125 0.9375 0.0
0.34375 0.9375 0.0
0.25 0.9375 0.0
0.25 0.90625 0.0
0.28125 0.90625 0.0
0.28125 0.9375 0.0
0.28125 0.875 0.0
0.25 0.875 0.0
0.3125 1.0 0.0
0.28125 1.0 0.0
0.28125 0.96875 0.0
0.3125 0.96875 0.0
0.25 0.96875 0.0
0.25 1.0 0.0
0.34375 0.96875 0.0
0.34375 1.0 0.0
0.3125 0.75 0.0
0.34375 0.75 0.0
0.34375 0.78125 0.0
0.3125 0.78125 0.0
0.3125 0.8125 0.0
0.34375 0.8125 0.0
0.25 0.8125 0.0
0.25 0.78125 0.0
0.28125 0.78125 0.0
0.28125 0.8125 0.0
0.28125 0.75 0.0
0.25 0.75 0.0
0.28125 0.84375 0.0
0.3125 0.84375 0.0
0.25 0.84375 0.0
0.34375 0.84375 0.0
0.3125 0.625 0.0
0.34375 0.625 0.0
0.34375 0.65625 0.0
0.3125 0.65625 0.0
0.3125 0.6875 0.0
0.34375 0.6875 0.0
0.25 0.6875 0.0
0.25 0.65625 0.0
0.28125 0.65625 0.0
0.28125 0.6875 0.0
0.28125 0.625 0.0
0.25 0.625 0.0
0.28125 0.71875 0.0
0.3125 0.71875 0.0
0.25 0.71875 0.0
0.34375 0.71875 0.0
0.3125 0.5 0.0
0.34375 0.5 0.0
0.34375 0.53125 0.0
0.3125 0.53125 0.0
0.3125 0.5625 0.0
0.34375 0.5625 0.0
0.25 0.5625 0.0
0.25 0.53125 0.0
0.28125 0.53125 0.0
0.28125 0.5625 0.0
0.28125 0.5 0.0
0.25 0.5 0.0
0.28125 0.59375 0.0
0.3125 0.59375 0.0
0.25 0.59375 0.0
0.34375 0.59375 0.0
0.3125 0.375 0.0
0.34375 0.375 0.0
0.34375 0.40625 0.0
0.3125 0.40625 0.0
0.3125 0.4375 0.0
0.34375 0.4375 0.0
0.25 0.4375 0.0
0.25 0.40625 0.0
0.28125 0.40625 0.0
0.28125 0.4375 0.0
0.28125 0.375 0.0
0.25 0.375 0.0
0.28125 0.46875 0.0
0.3125 0.46875 0.0
0.25 0.46875 0.0
0.34375 0.46875 0.0
0.3125 0.25 0.0
0.34375 0.25 0.0
0.34375 0.28125 0.0
0.3125 0.28125 0.0
0.3125 0.3125 0.0
0.34375 0.3125 0.0
0.25 0.3125 0.0
0.25 0.28125 0.0
0.28125 0.28125 0.0
0.28125 0.3125 0.0
0.28125 0.25 0.0
0.25 0.25 0.0
0.28125 0.34375 0.0
0.3125 0.34375 0.0
0.25 0.34375 0.0
0.34375 0.34375 0.0
0.3125 0.125 0.0
0.34375 0.125 0.0
0.34375 0.15625 0.0
0.3125 0.15625 0.0
0.3125 0.1875 0.0
0.34375 0.1875 0.0
0.25 0.1875 0.0
0.25 0.15625 0.0
0.28125 0.15625 0.0
0.28125 0.1875 0.0
0.28125 0.125 0.0
0.25 0.125 0.0
0.28125 0.21875 0.0
0.3125 0.21875 0.0
0.25 0.21875 0.0
0.34375 0.21875 0.0
0.3125 0.0 0.0
0.34375 0.0 0.0
0.34375 0.03125 0.0
0.3125 0.03125 0.0
0.3125 0.0625 0.0
0.34375 0.0625 0.0
0.25 0.0625 0.0
0.25 0.03125 0.0
0.28125 0.03125 0.0
0.28125 0.0625 0.0
0.28125 0.0 0.0
0.25 0.0 0.0
0.28125 0.09375 0.0
0.3125 0.09375 0.0
0.25 0.09375 0.0
0.34375 0.09375 0.0
0.3125 -0.125 0.0
0.34375 -0.125 0.0
0.34375 -0.09375 0.0
0.3125 -0.09375 0.0
0.3125 -0.0625 0.0
0.34375 -0.0625 0.0
0.25 -0.0625 0.0
0.25 -0.09375 0.0
0.28125 -0.09375 0.0
0.28125 -0.0625 0.0
0.28125 -0.125 0.0
0.25 -0.125 0.0
0.28125 -0.03125 0.0
0.3125 -0.03125 0.0
0.25 -0.03125 0.0
0.34375 -0.03125 0.0
0.3125 -0.25 0.0
0.34375 -0.25 0.0
0.34375 -0.21875 0.0
0.3125 -0.21875 0.0
0.3125 -0.1875 0.0
0.34375 -0.1875 0.0
0.25 -0.1875 0.0
0.25 -0.21875 0.0
0.28125 -0.21875 0.0
0.28125 -0.1875 0.0
0.28125 -0.25 0.0
0.25 -0.25 0.0
0.28125 -0.15625 0.0
0.3125 -0.15625 0.0
0.25 -0.15625 0.0
0.34375 -0.15625 0.0
0.3125 -0.375 0.0
0.34375 -0.375 0.0
0.34375 -0.34375 0.0
0.3125 -0.34375 0.0
0.3125 -0.3125 0.0
0.34375 -0.3125 0.0
0.25 -0.3125 0.0
0.25 -0.34375 0.0
0.28125 -0.34375 0.0
0.28125 -0.3125 0.0
0.28125 -0.375 0.0
0.25 -0.375 0.0
0.28125 -0.28125 0.0
0.3125 -0.28125 0.0
0.25 -0.28125 0.0
0.34375 -0.28125 0.0
0.3125 -0.5 0.0
0.34375 -0.5 0.0
0.34375 -0.46875 0.0
0.3125 -0.46875 0.0
0.3125 -0.4375 0.0
0.34375 -0.4375 0.0
0.25 -0.4375 0.0
0.25 -0.46875 0.0
0.28125 -0.46875 0.0
0.28125 -0.4375 0.0
0.28125 -0.5 0.0
0.25 -0.5 0.0
0.28125 -0.40625 0.0
0.3125 -0.40625 0.0
0.25 -0.40625 0.0
0.34375 -0.40625 0.0
0.3125 -0.625 0.0
0.34375 -0.625 0.0
0.34375 -0.59375 0.0
0.3125 -0.59375 0.0
0.3125 -0.5625 0.0
0.34375 -0.5625 0.0
0.25 -0.5625 0.0
0.25 -0.59375 0.0
0.28125 -0.59375 0.0
0.28125 -0.5625 0.0
0.28125 -0.625 0.0
0.25 -0.625 0.0
0.28125 -0.53125 0.0
0.3125 -0.53125 0.0
0.25 -0.53125 0.0
0.34375 -0.53125 0.0
0.3125 -0.75 0.0
0.34375 -0.75 0.0
0.34375 -0.71875 0.0
0.3125 -0.71875 0.0
0.3125 -0.6875 0.0
[...]
POINT_DATA 4225
SCALARS Radiance double
LOOKUP_TABLE default
0.1767835079823493
0.0795880146334908
0.1783162258048413
0.29858123229389016
0.43452053470852764
0.2993016293077015
0.17980715277070464
0.0814552722436829
0.009806280591760313
0.7103280543325047
0.5764896093580089
0.4347586621338936
0.5753014470843174
0.297724700827547
0.43479761252435173
0.7051865310961501
0.8233965248916976
0.7080448826204968
0.573752248105674
0.8265164830303356
0.9185304032636468
0.2998196922715969
0.43397311382003
0.5716335060718511
0.43294633753085604
-0.05475567928254633
-0.05444394410395867
-0.05430650189453774
-0.03661111123280267
0.006424732976115218
-0.03547688378015006
-0.053784448054125876
-0.05457916211701685
-0.04377096508243579
0.17359965074035963
0.07410111255746386
0.004802047105386037
0.07593207014185738
-0.03769626009714114
0.0031937692080641874
0.175212450067806
0.0777561614308404
0.29677105742640086
-0.0342688000385347
0.00808271842919436
-0.011557355446313613
-0.0012545076909592386
-0.012352510562066564
-0.026508155849317802
-0.042502982833887204
-0.027361638638913666
-0.01313667450430857
-0.0018231863860686207
0.004666122075782669
-0.05550221783390132
-0.0536907023584099
-0.04179940244878737
-0.053991490151083406
-0.025625824649211686
-0.041054306326140814
-0.055150424166169824
-0.054244290819796155
-0.038750568999479984
-0.028184447500934903
-0.043161977737756804
0.0058071183113027796
0.003803293922168603
0.005964154344627362
0.006878654749563644
0.005216437646249489
0.006871904598253344
0.00610785399642474
0.004009171120531215
0.001791532997990788
-0.009939454822754677
0.00041277949124099027
0.005466971991161861
-0.00013512301213193696
0.006867170018346973
0.005699305535907973
-0.01075258703834183
-0.000690997894031429
-0.02471701326500902
0.006846667943910056
0.004949391377265915
-0.0007511493134143134
-0.0008482285482652438
-0.0007168711455065653
-6.113719761971051e-05
0.0014270645873818858
4.8109336310893694e-05
-0.0006757135899078797
-0.0008606324960598663
-0.000667832970567897
0.005452911993498802
0.0031530486906792042
0.0012478606426858333
0.003374499630238113
-0.0001640945323296048
0.001070887588006379
0.005636556571463979
0.003591721061476328
0.006836785391910841
0.0001624419520563444
0.0016087015703854146
-4.779329518511171e-05
6.394754296139427e-05
-7.095017693445335e-05
-0.00028328076477585843
-0.0005923159860316159
-0.00031998602821133704
-9.53452980836438e-05
5.4148819677330646e-05
0.00010072053728849975
-0.0008005393640991648
-0.0007839830685818462
-0.000551914011992014
-0.0008097638138968149
-0.0002473581644766433
-0.000510686348117471
-0.0007792931983016648
-0.0008312043690798976
-0.0002602633911407016
-0.00035725971269679596
-0.0006308615415196066
3.6020733990478115e-05
1.078581707302638e-05
4.1627020240489684e-05
7.325996579091957e-05
9.776204734506098e-05
7.915524891967935e-05
4.751664542631819e-05
1.4346428940569092e-05
-4.574057295321678e-06
-7.195937468925773e-06
8.326399462123335e-05
9.486146979254392e-05
7.851887103498864e-05
6.691560310003781e-05
9.108625128551417e-05
-2.6653007554177685e-05
7.193900477916298e-05
-0.00021223190605982022
8.49762266406322e-05
9.983547776464822e-05
-7.365139013895277e-06
-4.153877186942161e-06
-8.160949284907234e-06
-9.943251407790754e-06
-6.905191231811041e-06
-1.0362107359667777e-05
-8.948830909509833e-06
-4.952615994733593e-06
-1.4571361089021071e-06
2.5526536292330774e-05
1.8269537583314485e-06
-7.696728349394322e-06
4.469068055586146e-06
-9.539790609114178e-06
-8.157270330782172e-06
3.0666658217709796e-05
7.3409164305422925e-06
6.067292879681627e-05
-1.048929214178181e-05
-5.892466117224664e-06
8.685104659132806e-07
7.00043234451936e-07
9.599580213244486e-07
6.21732692179056e-07
-6.591321166058392e-07
5.410665608243382e-07
9.464760320629026e-07
8.067959903287969e-07
4.601521402154692e-07
-5.791920534996217e-06
-2.313284652695097e-06
-4.1317844657728554e-07
-2.872607315791949e-06
7.000411566650657e-07
-1.3035836534273995e-07
-6.515745403772619e-06
-3.541028358053517e-06
-8.896282076103946e-06
4.4473335710194194e-07
-1.0775783196762293e-06
-5.1234872608843346e-08
-1.0822819508501711e-07
-1.9922143215563573e-08
2.2673925934912855e-08
3.0513480681288566e-07
1.0992851146505879e-07
-6.826410508476954e-08
-6.113719148270579e-08
-2.9364426533948984e-08
7.313366442677099e-07
4.79769467783235e-07
2.2985440623921047e-07
5.226993174310416e-07
6.137479675247071e-08
1.6475985419709366e-07
8.175607355651041e-07
6.373001123299831e-07
7.144781298212904e-07
1.1656109332464204e-07
3.3405854896575673e-07
-2.74855041373805e-09
-3.852878819989734e-08
9.576424910806023e-09
-5.902477314136862e-08
-5.045562595545257e-08
5.659753768671418e-09
-4.0001387704085956e-08
2.4663583403920285e-08
4.037410168207858e-08
-3.118771937011251e-08
-3.638399677534556e-08
-2.5262336030396597e-08
-8.476808681346899e-08
1.6842248358863864e-08
-6.045210388677161e-08
-6.771362391385882e-08
-3.065878542507603e-08
-4.051628208163506e-09
-6.123786911920899e-08
-7.031644987343203e-08
9.172350873582854e-09
-2.769653608445539e-08
1.015926874137861e-08
-3.262671056029391e-08
-8.377130242939609e-09
4.3379147170987747e-08
-1.8093454949667577e-08
2.1503670038380776e-08
1.8456931046734493e-08
3.698258772212111e-08
1.3439439492766866e-08
3.239355875679624e-08
-2.739194474522365e-08
3.0790922680499046e-08
-3.383846667132757e-08
-3.031733266240672e-08
4.766434030770822e-08
-3.146785684524218e-08
-2.706409033391957e-08
-6.743691922959364e-09
-1.8211729769231128e-09
-6.3769876239348275e-09
4.946150139738322e-09
-2.0299638187353047e-08
-2.972671673888966e-09
1.825035514609705e-08
-9.476956184179405e-09
5.487878034557588e-09
-1.4132683195969587e-09
3.492979503385312e-08
1.451681603759762e-08
1.3406302633407577e-08
-2.518938187167636e-08
1.906639522292885e-08
-2.19360993117305e-08
-2.1525017315526322e-08
3.185017580830947e-08
-1.0423092203880977e-08
-1.4336151371947091e-08
-9.276927916381517e-09
1.6852019037607985e-09
6.7356016258682045e-09
-7.271021805874871e-09
4.888725226066101e-09
1.2902731487508875e-09
-3.3577130830736915e-09
1.026498348378356e-08
5.77009577197369e-10
-1.4447978194460174e-08
8.87045459021425e-09
9.50594033395466e-09
-3.468986542268405e-09
-8.099531840061776e-09
-2.7876459917814754e-09
2.777978190395048e-09
-4.0205986474400385e-09
6.768736807079053e-09
-1.5718418951961777e-08
-1.1625064270628607e-09
7.786425424437141e-10
6.76355120922033e-09
2.2156011200776637e-09
-1.1973877432237802e-08
1.0133528417962255e-08
-5.441188056898943e-09
-5.420828527680589e-09
1.3570160214839994e-08
4.254169831559651e-09
-9.106185773369071e-09
-7.646820558265338e-09
-4.933184921650958e-09
-1.672119530084956e-09
9.609889630247225e-09
-1.0185718161690621e-08
6.524550531229107e-09
4.394581999507619e-09
-1.0532657887830771e-08
-1.6915668746979228e-09
-2.4733453795196095e-09
1.1870387344380297e-08
0.0
0.0
-2.644644060823093e-09
1.5040227539737678e-09
-4.6208660033400055e-09
7.653262151382244e-11
3.831347692393998e-09
1.7683080579907581e-09
0.0
-2.6724729391524627e-09
-2.966000579308565e-09
1.05589274656509e-09
5.832063277757523e-09
0.0
0.0
-9.29411841733226e-10
-5.9363333424781495e-09
6.472132252123368e-09
-4.124434914023636e-09
8.164672222059986e-09
0.7139532459816001
0.5774515967825691
0.7122506274468811
0.8314045112605288
0.9238892926033494
0.8291211203695987
1.0302230662207312
0.9925282330974996
0.9260980489059715
0.9907791684166947
0.8334963662000331
0.9281509448477978
1.0276099986568703
1.0453717520446486
1.0290280522565167
0.9888319442856209
1.0459317602559786
1.0459831392800165
0.9214196363255321
0.986568994284643
0.1702440416785217
0.07224979640856924
0.171944017268641
0.29465541928493555
0.4345295583211334
0.29574429490941934
0.7170418220244077
0.5797217801708296
0.4342929599440668
0.5790206110755823
0.2935148388287128
0.43401390089150416
0.7155301449509941
0.5782765902966295
0.8354816605596612
0.434706238500915
-0.056099427805137755
-0.053346090755318924
-0.05581721698729953
-0.040806228461674775
-3.183069098933375e-05
-0.039784741525635166
0.16670172284125523
0.06649647546500781
-0.001666208577234199
0.06845399467295624
-0.04181852715889016
-0.0033216166662426504
0.16849758923865424
0.07036993816457901
0.29232710110008414
0.0015857117756028643
-0.008293706125137931
0.0009508674280411966
-0.009119580035952687
-0.022821376918129428
-0.03944446646281061
-0.02378173420594583
-0.056571176824814134
-0.052054586764500366
-0.038579381642226095
-0.05252867815857193
-0.021836052811522167
-0.03767353842251048
-0.056350548501447384
-0.052958601210954526
-0.04282478086096337
-0.04026931101832165
0.0050473119212980705
0.0029275964893323864
0.005256271878473325
0.006717263024082231
0.006106253024719655
0.006787033975940901
-0.0066295924929192125
0.002491632170076426
0.006277864006936295
0.001991939137780435
0.00662741026828594
0.006426544199789892
-0.007463257593653581
0.0014777423762372746
-0.020826089891867062
0.005912860490189407
-0.0008226419733411392
-0.0007541391381593034
-0.0008151673981668722
-0.00043093736125441933
0.0007293134411160942
-0.0003494797925948443
0.004592846313866914
0.002236597114747276
0.0005659529573881259
0.0024684986367918514
-0.0005042886118064656
0.0004088311051398655
0.004825850511179777
0.0026989739129004314
0.006516699518182667
0.0008979599862255662
2.5623301209652315e-05
8.663842284490863e-05
1.022615945799368e-05
-0.00014628570876141987
-0.00042536844704331054
-0.00017864027267387676
-0.0008175436334389902
-0.0006435009388196416
-0.00038237874760503105
-0.0006834902024513301
-0.00011589348789806774
-0.0003395215630376032
-0.0008235552525671796
-0.0007207543505246956
-0.0005688381066928694
-0.0004682025382640886
1.639749137485179e-05
-3.2542641618955877e-07
2.0834675058725947e-05
4.797354627823581e-05
8.140915101111043e-05
5.423392973450374e-05
5.0000661892917485e-05
8.762216797846874e-05
7.565997653341648e-05
8.869284606408489e-05
4.177584729023805e-05
6.962687580026044e-05
3.8932027161914915e-05
8.830467209208522e-05
-8.726777479534536e-05
8.652788511752605e-05
-4.289075865819073e-06
-1.8240530059450104e-06
-4.941225130088417e-06
-7.5662381225676456e-06
-8.450264656996788e-06
-8.2946732252573e-06
8.917404343270583e-06
-4.781427836395563e-06
-8.407134296976056e-06
-3.6405670031986027e-06
-6.794339798206273e-06
-7.995798015136223e-06
1.2505485651124611e-05
-2.1888770925268497e-06
3.58396977792747e-05
-8.476752010792074e-06
5.889149240440572e-07
3.75481591976851e-07
6.682507138850874e-07
6.890818068173928e-07
2.3369999142277397e-07
7.166293753573465e-07
-2.966573105229998e-06
-6.565609416143574e-07
3.1097324991954894e-07
-9.942950465195247e-07
6.702202459973203e-07
4.295881868534061e-07
-3.5607377949827185e-06
-1.363955678924952e-06
-6.109002390085977e-06
5.325429573010342e-08
-2.8546320809602574e-08
-5.368004629516519e-08
-6.787867749668724e-08
-1.2552424996208094e-08
8.972461650745395e-08
-2.646725982118121e-09
4.4386135324717315e-07
2.0850072744782284e-07
7.08637564335773e-08
2.615711037455836e-07
-2.3199727283669784e-08
4.534941505001505e-08
5.176875015115855e-07
3.214600529404227e-07
5.950543911470688e-07
1.534128997417996e-07
2.5477832929311548e-08
1.030643484173777e-08
-3.595100434945737e-08
1.208277212165284e-08
-4.7616850014719144e-08
-1.514616448661888e-08
-3.477943963739864e-08
-4.534134357758304e-08
-6.533312005691095e-09
-1.5031212691663916e-08
-3.002071236296726e-08
-1.285089983125384e-08
-5.926398681560144e-08
-4.764923708692552e-08
-1.99128756891229e-08
7.332444613622667e-09
2.9909975831472346e-08
-1.0146811223550478e-09
-3.459801732401812e-08
2.570556263651771e-08
-2.7293987115136916e-08
-4.702092989000719e-09
-3.0567157266452205e-09
-3.234493121827834e-08
1.4617649502906932e-08
3.539376205067821e-08
-3.2723135592756086e-08
8.734963582936296e-09
-1.0674346104243709e-08
-2.0787634477924937e-08
2.030954453721998e-08
4.104525163033119e-08
1.806203969206078e-08
-9.884898276885511e-09
-1.4107426868895882e-08
1.835788072736803e-09
-2.8626366626846473e-08
7.356186499303914e-09
3.2497551452459414e-09
-3.363581079516905e-08
2.2425845978311346e-08
2.6280719117810063e-08
-1.2638999970494274e-08
-1.1753788214274862e-08
-1.8234404522083017e-08
-1.2536423176735939e-08
3.650074240969555e-08
2.7943525964877345e-08
-2.964556043114189e-09
-7.837072124231972e-10
6.840950756798672e-09
-8.222571532552691e-09
-5.867752354071505e-09
6.452765491160847e-09
1.498669715192185e-08
-6.8365296900713355e-09
1.0542142730860157e-08
-1.1911472264707523e-09
6.297233990201794e-09
-1.1190369777108463e-08
-1.880369875340371e-08
6.786183862164733e-09
2.13532829814391e-08
5.036180575630792e-10
0.0
0.0
2.686788159112146e-09
-7.544393983736913e-10
4.453654569861516e-09
-1.8573407434112518e-09
4.2380093861419216e-09
2.233148406987864e-09
-1.1350441109557637e-09
-4.857548863539835e-09
0.0
0.0
-1.6813302575410943e-09
4.735847495262098e-09
-2.195826904931693e-09
-7.17863785091895e-09
1.0322231792399066
0.9941539714184735
1.0312718870968074
1.0466397948444761
1.0456095347122571
1.0463397161242465
1.021605603713898
1.034537882581416
1.0452911846879414
1.035230169431191
1.0468613280015069
1.0449090521208104
1.0230676193958477
1.010602412327548
1.0223618637864045
1.035865515654504
1.0099806232160322
1.0016348666467316
1.0458485049687678
1.0364275508915324
0.7200204252876331
0.5804018742760623
0.7185298905724228
0.8393451084435308
0.9320436978096124
0.8374188976785448
1.0339471233742987
0.9987135636953545
0.9339613857418726
0.9972196304888452
0.841286659412738
0.9358901396801942
1.033108595056528
0.9957071321295206
1.0470205028368442
0.9301169838412865
0.16294810296990184
0.06449205648465695
0.1648533242417798
0.28981840464191916
0.4333718478692385
0.29109501885921685
0.7230718104400395
0.5824555308647122
0.4330202408524985
0.5817595855761659
0.28849633835688915
0.43265196481075335
0.7215302481908993
0.5810776235236973
0.843258855167057
0.4337044139876902
-0.056915071812813384
-0.05153500838338538
-0.056759991136029746
-0.04482283849474167
-0.00670928060616611
-0.04382599792315064
0.1589526650136705
0.05816013871810145
-0.008446421088289203
0.060327979456048425
-0.04581438141841279
-0.010215079005675642
0.1609825395527878
0.062437297486331145
0.28712627550111897
-0.005001794017578392
-0.0049582181638765
0.0029744973440219533
-0.005793937914486382
-0.01873309074844913
-0.035735196802802426
-0.019791720620217734
-0.05711477539936462
-0.049679750131083895
-0.03469980280100943
-0.050350253124164294
-0.017650742524012598
-0.0336181855401509
-0.05703437452241782
-0.05096784017594642
-0.04679901537709027
-0.0367259050213866
0.004094240300518722
0.002004652498673854
0.004348842766844452
0.006231237738059508
0.006649524566494292
0.006384567721692004
-0.0032946908177180776
0.004302116053077175
0.0067205452956669975
0.0038823860374404607
0.0060560390096785965
0.006762755037495177
-0.004124608074522728
0.003438795848525247
-0.01654521399500758
0.0065511048276043
-0.0007856326809691071
-0.000600599429029662
-0.0008046593082891823
-0.0006708284091477893
0.00011706262967124085
-0.0006247288625290818
0.003557797849467058
0.0013202674790657556
-1.5941631032512043e-05
0.0015453194791475164
-0.0007073775410675005
-0.0001384876221107607
0.003830207408123988
0.0017737541318033428
0.005859023492978243
0.0002589199144894562
6.592770894489122e-05
8.538977589967771e-05
5.909289473935413e-05
-3.7151718276089455e-05
-0.00025606770123340003
-6.106141003775484e-05
-0.0007290443246806568
-0.0004605945283621273
-0.00021651329051817445
-0.0005086846260925732
-1.5784971080159745e-05
-0.00017857645738154971
-0.000760149570813042
-0.0005555896128389816
-0.0007341521366418111
-0.0002973844670795234
3.1611221037525967e-06
-5.6364288727766645e-06
5.89348159362512e-06
2.494212008478653e-05
5.671025877217399e-05
3.022445585114514e-05
7.363910803421012e-05
7.255887144875938e-05
5.013920678766451e-05
7.76219578004068e-05
2.011692651113735e-05
4.373948388539426e-05
7.087814858156782e-05
8.20017742004462e-05
2.925627156385803e-06
6.317032643172176e-05
-1.9192980276291987e-06
-4.232087511984142e-07
-2.3778771454365245e-06
-4.616224651616337e-06
-7.086915016034007e-06
-5.296497759680243e-06
-7.632450519741972e-07
-6.389584863381106e-06
-6.447407602736561e-06
-6.419948358438474e-06
-3.901141714268267e-06
-5.805153847036683e-06
1.0152595720875075e-06
-6.054385968835299e-06
1.566122563954809e-05
-7.624427484755551e-06
3.1027281507723784e-07
1.5175031949897682e-07
3.816724333542004e-07
4.972010573764708e-07
4.507865381582422e-07
5.814568843773564e-07
-1.032389192559594e-06
8.819916401659992e-08
4.796891970749851e-07
-6.464583066072747e-08
4.6898772071845944e-07
4.509319815668209e-07
-1.4490704410882528e-06
-1.3674990152539004e-07
-3.344172329612085e-06
4.3794599428373206e-07
-3.4366020085243104e-08
-1.2287332711589066e-08
-3.06277415588969e-08
-2.7401819476954837e-08
1.1831475164781592e-08
-3.578119644129364e-08
2.27574216439264e-07
7.510722716639527e-08
1.2821425613801468e-09
9.038253998032454e-08
-2.2853908712830626e-08
-1.1362673753634408e-08
2.4468464689293134e-07
1.369352273986604e-07
3.6231066941700285e-07
3.193907624938362e-08
-2.4627789118759078e-08
2.630125771018617e-08
1.885582095779299e-08
5.6371483717558845e-09
5.155561110582182e-09
-1.9350267880171454e-08
-2.526908437974882e-08
-4.698098116606061e-09
-1.7238713678190784e-08
-1.6033815540729138e-08
4.098289540969722e-09
4.175645773442933e-10
-2.338852293269759e-08
-2.4427982076415103e-08
-2.6744166172449517e-08
-1.9196418297818845e-08
-2.8239422228270907e-08
3.417290612225184e-08
1.4850067433407782e-08
1.7448079615685052e-08
3.349271153399864e-08
-3.000701754329947e-08
-1.6050574378835028e-08
2.6405364799764777e-08
-3.2030888887036713e-08
-8.006550296261263e-09
-3.345742980345189e-10
2.3307902808350185e-08
2.5906148918161574e-08
-6.976658036514354e-09
-1.342309335718802e-08
-2.1190878017399978e-08
-3.250157599729004e-09
1.2864427338769688e-08
-7.602254787648883e-09
2.2862503747448522e-08
1.7413475874864433e-08
-2.470899595570617e-08
-3.4022801462721796e-08
8.08648570195143e-09
-2.4275978405956526e-08
7.846192247779474e-09
-1.5219551034040768e-08
2.574175858432967e-08
3.775706630386211e-08
-2.5588637334065717e-08
-1.6459407243730054e-08
-3.808124241610851e-09
0.0
0.0
-3.0253249490538493e-09
3.2030140355258474e-09
-2.944338271548146e-09
-2.0069048914920417e-09
-1.1636849125616268e-08
-3.514756665719449e-09
-9.987268873855182e-10
8.997138305403035e-09
0.0
0.0
1.1093461952664633e-08
-1.3099306833936645e-08
2.286435635703422e-09
7.934892165086063e-09
1.0199849631802334
1.033796872692183
1.020810910355644
1.0086507377698701
1.0008053018659087
1.0093268877353763
0.995525765469258
0.996334266916886
1.000372487260385
0.9965000298357014
1.0079603297489614
0.9999374593759303
0.9954306387599702
0.9960286467042946
0.9954761555664272
0.9966647929357804
0.9961930853104792
0.9971353862721261
1.0012288457985496
0.9968230589569969
1.0355265584259896
1.0002011992138893
1.0347508178330527
1.0471870243156973
1.0439826150799685
1.0471276312182476
1.018258211324508
1.0313253416498032
1.0434445883125891
1.032188327787721
1.04720179661723
1.0428579341661457
1.0191328180731625
1.0330129666694434
1.0072609180062224
1.044471377429103
0.7262845821273698
0.5831708492290584
0.7246542406384078
0.8473374801799352
0.9398286266721136
0.8452729235354192
1.0370062217507778
1.0046955766203702
0.941852323700316
1.0031884520474663
0.8494591544444052
0.943919499666111
1.0362776839502712
1.0016911938356032
1.0471726037794193
0.937843215442414
0.15468177095445654
0.05593035237921497
0.15685379166445043
0.2842310078878214
0.4318669829258053
0.28570532166527685
0.7297147481609887
0.5854704108654256
0.43145052924973964
0.5846747988404668
0.2826992847446338
0.4310175016498627
0.7279691952087272
0.5839092494913816
0.8516452444109947
0.4322676165243596
-0.05714554565517839
-0.048952305057103185
-0.057153205730929454
-0.04874232651139685
-0.013849839821987496
-0.047775922236549105
0.15009701968409275
0.04882980329553479
-0.01571789288955401
0.05126905497500145
-0.04969659166910292
-0.017621119350576416
0.1524310314610523
0.053634245993735
0.2811073070770541