# vtk DataFile Version 2.0
Packing Fraction Fields
ASCII
DATASET UNSTRUCTURED_GRID
POINTS 16641 double
0.125 -0.875 0.0
0.109375 -0.875 0.0
0.109375 -0.890625 0.0
0.125 -0.890625 0.0
0.09375 -0.875 0.0
0.09375 -0.890625 0.0
0.09375 -0.90625 0.0
0.109375 -0.90625 0.0
0.125 -0.90625 0.0
0.0625 -0.875 0.0
0.0625 -0.890625 0.0
0.078125 -0.890625 0.0
0.078125 -0.875 0.0
0.0625 -0.90625 0.0
0.078125 -0.90625 0.0
0.0625 -0.9375 0.0
0.078125 -0.9375 0.0
0.078125 -0.921875 0.0
0.0625 -0.921875 0.0
0.09375 -0.9375 0.0
0.09375 -0.921875 0.0
0.125 -0.9375 0.0
0.125 -0.921875 0.0
0.109375 -0.921875 0.0
0.109375 -0.9375 0.0
1.190158293887497e-17 -0.875 0.0
8.239936510889834e-18 -0.890625 0.0
0.01562500000000001 -0.890625 0.0
0.015625000000000014 -0.875 0.0
5.637851296924623e-18 -0.90625 0.0
0.015625000000000003 -0.90625 0.0
0.03125 -0.90625 0.0
0.03125000000000001 -0.890625 0.0
0.031250000000000014 -0.875 0.0
1.3010426069826053e-18 -0.9375 0.0
0.015625 -0.9375 0.0
0.015625 -0.921875 0.0
2.927345865710862e-18 -0.921875 0.0
0.03125 -0.9375 0.0
0.03125 -0.921875 0.0
0.046875 -0.921875 0.0
0.046875 -0.9375 0.0
0.046875 -0.90625 0.0
0.046875 -0.875 0.0
0.046875 -0.890625 0.0
0.0 -1.0 0.0
0.015625 -1.0 0.0
0.015625 -0.984375 0.0
0.0 -0.984375 0.0
0.03125 -1.0 0.0
0.03125 -0.984375 0.0
0.03125 -0.96875 0.0
0.015625 -0.96875 0.0
0.0 -0.96875 0.0
0.0625 -1.0 0.0
0.0625 -0.984375 0.0
0.046875 -0.984375 0.0
0.046875 -1.0 0.0
0.0625 -0.96875 0.0
0.046875 -0.96875 0.0
0.046875 -0.953125 0.0
0.0625 -0.953125 0.0
0.03125 -0.953125 0.0
0.0 -0.953125 0.0
0.015625 -0.953125 0.0
0.125 -1.0 0.0
0.125 -0.984375 0.0
0.109375 -0.984375 0.0
0.109375 -1.0 0.0
0.125 -0.96875 0.0
0.109375 -0.96875 0.0
0.09375 -0.96875 0.0
0.09375 -0.984375 0.0
0.09375 -1.0 0.0
0.109375 -0.953125 0.0
0.125 -0.953125 0.0
0.09375 -0.953125 0.0
0.078125 -0.953125 0.0
0.078125 -0.96875 0.0
0.078125 -1.0 0.0
0.078125 -0.984375 0.0
0.125 -0.75 0.0
0.109375 -0.75 0.0
0.109375 -0.765625 0.0
0.125 -0.765625 0.0
0.09375 -0.75 0.0
0.09375 -0.765625 0.0
0.09375 -0.78125 0.0
0.109375 -0.78125 0.0
0.125 -0.78125 0.0
0.06250000000000003 -0.75 0.0
0.06250000000000003 -0.765625 0.0
0.078125 -0.765625 0.0
0.07812500000000001 -0.75 0.0
0.06250000000000001 -0.78125 0.0
0.078125 -0.78125 0.0
0.0625 -0.8125 0.0
0.078125 -0.8125 0.0
0.078125 -0.796875 0.0
0.0625 -0.796875 0.0
0.09375 -0.8125 0.0
0.09375 -0.796875 0.0
0.125 -0.8125 0.0
0.125 -0.796875 0.0
0.109375 -0.796875 0.0
0.109375 -0.8125 0.0
1.4343501922813914e-17 -0.75 0.0
1.3444106938820255e-17 -0.765625 0.0
0.015625000000000014 -0.765625 0.0
0.015625000000000017 -0.75 0.0
1.3444106938820255e-17 -0.78125 0.0
0.015625000000000014 -0.78125 0.0
0.031250000000000014 -0.78125 0.0
0.031250000000000014 -0.765625 0.0
0.03125000000000002 -0.75 0.0
1.3444106938820255e-17 -0.8125 0.0
0.015625000000000014 -0.8125 0.0
0.015625000000000014 -0.796875 0.0
1.2902005852577503e-17 -0.796875 0.0
0.031250000000000014 -0.8125 0.0
0.031250000000000014 -0.796875 0.0
0.046875000000000014 -0.796875 0.0
0.046875000000000014 -0.8125 0.0
0.046875000000000014 -0.78125 0.0
0.04687500000000002 -0.75 0.0
0.04687500000000002 -0.765625 0.0
0.015625000000000014 -0.859375 0.0
1.2950055721585383e-17 -0.859375 0.0
0.031250000000000014 -0.859375 0.0
0.031250000000000014 -0.84375 0.0
0.015625000000000014 -0.84375 0.0
1.3250675414865455e-17 -0.84375 0.0
0.0625 -0.859375 0.0
0.04687500000000001 -0.859375 0.0
0.0625 -0.84375 0.0
0.04687500000000001 -0.84375 0.0
0.046875 -0.828125 0.0
0.0625 -0.828125 0.0
0.031250000000000014 -0.828125 0.0
1.3444106938820255e-17 -0.828125 0.0
0.015625000000000014 -0.828125 0.0
0.125 -0.859375 0.0
0.109375 -0.859375 0.0
0.125 -0.84375 0.0
0.109375 -0.84375 0.0
0.09375 -0.84375 0.0
0.09375 -0.859375 0.0
0.109375 -0.828125 0.0
0.125 -0.828125 0.0
0.09375 -0.828125 0.0
0.078125 -0.828125 0.0
0.078125 -0.84375 0.0
0.078125 -0.859375 0.0
0.125 -0.625 0.0
0.109375 -0.625 0.0
0.109375 -0.640625 0.0
0.125 -0.640625 0.0
0.09375 -0.625 0.0
0.09375 -0.640625 0.0
0.09375 -0.65625 0.0
0.109375 -0.65625 0.0
0.125 -0.65625 0.0
0.06250000000000003 -0.625 0.0
0.06250000000000003 -0.640625 0.0
0.078125 -0.640625 0.0
0.07812500000000001 -0.625 0.0
0.06250000000000003 -0.65625 0.0
0.07812500000000001 -0.65625 0.0
0.06250000000000003 -0.6875 0.0
0.078125 -0.6875 0.0
0.07812500000000001 -0.671875 0.0
0.06250000000000003 -0.671875 0.0
0.09375 -0.6875 0.0
0.09375 -0.671875 0.0
0.125 -0.6875 0.0
0.125 -0.671875 0.0
0.109375 -0.671875 0.0
0.109375 -0.6875 0.0
1.4560342357311015e-17 -0.625 0.0
1.5178830414797062e-17 -0.640625 0.0
0.01562500000000002 -0.640625 0.0
0.01562500000000002 -0.625 0.0
1.5178830414797062e-17 -0.65625 0.0
0.01562500000000002 -0.65625 0.0
0.03125000000000003 -0.65625 0.0
0.03125000000000003 -0.640625 0.0
0.03125000000000003 -0.625 0.0
1.431146867680866e-17 -0.6875 0.0
0.015625000000000017 -0.6875 0.0
0.01562500000000002 -0.671875 0.0
1.485356976305141e-17 -0.671875 0.0
0.03125000000000003 -0.6875 0.0
0.03125000000000003 -0.671875 0.0
0.04687500000000003 -0.671875 0.0
0.04687500000000003 -0.6875 0.0
0.04687500000000003 -0.65625 0.0
0.04687500000000003 -0.625 0.0
0.04687500000000003 -0.640625 0.0
0.015625000000000017 -0.734375 0.0
1.4861578074552723e-17 -0.734375 0.0
0.03125000000000002 -0.734375 0.0
0.031250000000000014 -0.71875 0.0
0.015625000000000014 -0.71875 0.0
1.4595455723124465e-17 -0.71875 0.0
0.06250000000000003 -0.734375 0.0
0.04687500000000002 -0.734375 0.0
0.06250000000000001 -0.71875 0.0
0.04687500000000002 -0.71875 0.0
0.04687500000000003 -0.703125 0.0
0.06250000000000003 -0.703125 0.0
0.03125000000000002 -0.703125 0.0
1.431146867680866e-17 -0.703125 0.0
0.015625000000000017 -0.703125 0.0
0.125 -0.734375 0.0
0.109375 -0.734375 0.0
0.125 -0.71875 0.0
0.109375 -0.71875 0.0
0.09375 -0.71875 0.0
0.09375 -0.734375 0.0
0.109375 -0.703125 0.0
0.125 -0.703125 0.0
0.09375 -0.703125 0.0
0.078125 -0.703125 0.0
0.07812500000000001 -0.71875 0.0
0.07812500000000001 -0.734375 0.0
0.125 -0.5 0.0
0.109375 -0.5 0.0
0.109375 -0.515625 0.0
0.125 -0.515625 0.0
0.09375 -0.5 0.0
0.09375 -0.515625 0.0
0.09375 -0.53125 0.0
0.109375 -0.53125 0.0
0.125 -0.53125 0.0
0.06250000000000003 -0.5 0.0
0.06250000000000003 -0.515625 0.0
0.078125 -0.515625 0.0
0.07812500000000001 -0.5 0.0
0.06250000000000003 -0.53125 0.0
0.07812500000000001 -0.53125 0.0
0.06250000000000003 -0.5625 0.0
0.078125 -0.5625 0.0
0.07812500000000001 -0.546875 0.0
0.06250000000000003 -0.546875 0.0
0.09375 -0.5625 0.0
0.09375 -0.546875 0.0
0.125 -0.5625 0.0
0.125 -0.546875 0.0
0.109375 -0.546875 0.0
0.109375 -0.5625 0.0
1.4994023226305216e-17 -0.5 0.0
1.5612511283791264e-17 -0.515625 0.0
0.01562500000000002 -0.515625 0.0
0.01562500000000002 -0.5 0.0
1.5178830414797062e-17 -0.53125 0.0
0.01562500000000002 -0.53125 0.0
0.03125000000000003 -0.53125 0.0
0.03125000000000003 -0.515625 0.0
0.03125000000000003 -0.5 0.0
1.431146867680866e-17 -0.5625 0.0
0.015625000000000017 -0.5625 0.0
0.01562500000000002 -0.546875 0.0
1.485356976305141e-17 -0.546875 0.0
0.03125000000000003 -0.5625 0.0
0.03125000000000003 -0.546875 0.0
0.04687500000000003 -0.546875 0.0
0.04687500000000003 -0.5625 0.0
0.04687500000000003 -0.53125 0.0
0.04687500000000003 -0.5 0.0
0.04687500000000003 -0.515625 0.0
0.015625000000000017 -0.609375 0.0
1.4915788183176998e-17 -0.609375 0.0
0.03125000000000002 -0.609375 0.0
0.031250000000000014 -0.59375 0.0
0.015625000000000014 -0.59375 0.0
1.4595455723124465e-17 -0.59375 0.0
0.06250000000000003 -0.609375 0.0
0.04687500000000003 -0.609375 0.0
0.06250000000000001 -0.59375 0.0
0.04687500000000002 -0.59375 0.0
0.04687500000000003 -0.578125 0.0
0.06250000000000003 -0.578125 0.0
0.03125000000000002 -0.578125 0.0
1.431146867680866e-17 -0.578125 0.0
0.015625000000000017 -0.578125 0.0
0.125 -0.609375 0.0
0.109375 -0.609375 0.0
0.125 -0.59375 0.0
0.109375 -0.59375 0.0
0.09375 -0.59375 0.0
0.09375 -0.609375 0.0
0.109375 -0.578125 0.0
0.125 -0.578125 0.0
0.09375 -0.578125 0.0
0.078125 -0.578125 0.0
0.07812500000000001 -0.59375 0.0
0.07812500000000001 -0.609375 0.0
0.125 -0.375 0.0
0.109375 -0.375 0.0
0.109375 -0.390625 0.0
0.125 -0.390625 0.0
0.09375 -0.375 0.0
0.09375 -0.390625 0.0
0.09375 -0.40625 0.0
0.109375 -0.40625 0.0
0.125 -0.40625 0.0
0.06250000000000003 -0.375 0.0
0.06250000000000003 -0.390625 0.0
0.078125 -0.390625 0.0
0.07812500000000001 -0.375 0.0
0.06250000000000003 -0.40625 0.0
0.07812500000000001 -0.40625 0.0
0.06250000000000003 -0.4375 0.0
0.078125 -0.4375 0.0
0.07812500000000001 -0.421875 0.0
0.06250000000000003 -0.421875 0.0
0.09375 -0.4375 0.0
0.09375 -0.421875 0.0
0.125 -0.4375 0.0
0.125 -0.421875 0.0
0.109375 -0.421875 0.0
0.109375 -0.4375 0.0
1.8951361155877308e-17 -0.375 0.0
1.7780915628762273e-17 -0.390625 0.0
0.01562500000000002 -0.390625 0.0
0.01562500000000002 -0.375 0.0
1.8648277366750676e-17 -0.40625 0.0
0.01562500000000002 -0.40625 0.0
0.03125000000000003 -0.40625 0.0
0.03125000000000003 -0.390625 0.0
0.03125000000000003 -0.375 0.0
1.6479873021779667e-17 -0.4375 0.0
0.01562500000000002 -0.4375 0.0
0.01562500000000002 -0.421875 0.0
1.6696713456276768e-17 -0.421875 0.0
0.03125000000000003 -0.4375 0.0
0.03125000000000003 -0.421875 0.0
0.04687500000000003 -0.421875 0.0
0.04687500000000003 -0.4375 0.0
0.04687500000000003 -0.40625 0.0
0.04687500000000003 -0.375 0.0
0.04687500000000003 -0.390625 0.0
0.01562500000000002 -0.484375 0.0
1.5891570138413952e-17 -0.484375 0.0
0.03125000000000002 -0.484375 0.0
0.031250000000000014 -0.46875 0.0
0.015625000000000017 -0.46875 0.0
1.6438599416349822e-17 -0.46875 0.0
0.06250000000000003 -0.484375 0.0
0.04687500000000003 -0.484375 0.0
0.06250000000000001 -0.46875 0.0
0.04687500000000002 -0.46875 0.0
0.04687500000000003 -0.453125 0.0
0.06250000000000003 -0.453125 0.0
0.03125000000000002 -0.453125 0.0
1.734723475976807e-17 -0.453125 0.0
0.015625000000000017 -0.453125 0.0
0.125 -0.484375 0.0
0.109375 -0.484375 0.0
0.125 -0.46875 0.0
0.109375 -0.46875 0.0
0.09375 -0.46875 0.0
0.09375 -0.484375 0.0
0.109375 -0.453125 0.0
0.125 -0.453125 0.0
[...]
POINT_DATA 16641
SCALARS Radiance double
LOOKUP_TABLE default
3.9856093044947663e-10
2.5019879898600505e-10
-4.115343891674731e-10
1.944518257084666e-10
-5.641816681964843e-10
-3.948017518189622e-12
3.968703749861063e-10
-3.592926437257342e-11
-3.097027294720055e-10
5.806510121295806e-10
-2.3819301885959286e-10
4.892652647232195e-10
-1.672015789966004e-11
-3.6779505120692484e-10
-1.385648948579227e-10
1.6397911406136057e-10
1.6420930077613233e-10
-2.669207308193574e-10
2.5050011784168615e-10
-2.0508243233828462e-10
-8.83780326821203e-11
1.789807575071295e-10
-4.4874710403103873e-11
2.655595474145186e-10
-5.192333303403132e-11
2.364745459743621e-10
-4.5464519550112233e-10
2.616663952376684e-10
4.6277197864856346e-10
-1.6092247925209982e-11
-4.106710590376514e-10
2.157554417983648e-10
4.151844659867573e-10
-4.4541280620807505e-10
-8.560542894677689e-11
2.7963601986759225e-10
-4.21957580620581e-11
3.6525270808019825e-10
-5.271157528418277e-11
-3.6406218179558823e-10
1.8248354939826893e-10
-2.5524261917224447e-10
3.1113703409692034e-10
-2.6324646564345756e-10
-4.379021485467629e-10
0.0
0.0
4.0418435758944076e-11
4.4627581256311385e-11
0.0
-5.710564981012805e-11
-2.1914084011305488e-11
-1.2605948614855825e-10
8.214706260081307e-11
0.0
5.2210337593281743e-11
-8.417380391982327e-12
0.0
-3.3961961780599965e-11
1.293262862070117e-10
-3.372095020445122e-11
-1.6462198858349835e-10
2.0968852252197445e-10
-1.955914281550322e-10
-6.24025967779443e-11
0.0
1.5534252691314894e-11
2.7771107389753308e-11
0.0
-6.727512143447693e-11
4.720953289464522e-11
6.50583397050561e-11
-3.505615741926558e-11
0.0
-1.2591003917932866e-10
-1.865869300920022e-11
8.924484975185581e-11
1.0537616179989159e-10
-9.533486561271324e-11
0.0
-1.696304769133801e-11
-6.780354811275418e-10
1.2592188117233886e-09
2.519430041865562e-10
1.228480827254648e-09
1.5977228087478316e-10
-1.2558572172574323e-09
3.0363792450957993e-10
-1.1098283513737263e-09
2.310594393787248e-10
2.4795879763312635e-10
9.827707753764478e-10
2.198086586097097e-10
-1.3173094748349679e-09
-6.922704493724404e-10
1.0015097858209302e-09
8.31021776365956e-10
-6.081680021622847e-10
-6.047464631810093e-10
-7.045818228497103e-10
-5.382845462403633e-10
1.0246236592521296e-09
1.3224540768713439e-10
-1.0550909977081752e-09
2.613090928856881e-10
8.66284200068995e-10
8.547709204159819e-10
3.400383979717204e-10
8.304317872711639e-10
-6.679968018417864e-10
-7.972611772407584e-10
3.1546460973102266e-10
8.086271288178228e-10
-6.434567678616237e-10
-5.593445204692499e-10
7.007160764063558e-10
4.44535284786197e-11
-8.097240995318583e-10
7.79109641454198e-11
-8.767725139503469e-10
2.6312758242373404e-10
7.797640175931231e-10
2.613735301576382e-10
-7.137312499759921e-10
1.046579608883808e-09
-6.242393580552703e-10
-4.942853698137341e-10
4.357354125498926e-10
-2.8804844746322134e-10
7.064928390218603e-10
-3.486239463516377e-10
-5.09081831461675e-10
4.3575926772125255e-11
7.035534305968079e-10
-7.515679243860597e-10
8.612145573765769e-11
-8.292659029650416e-10
3.2297562923813194e-10
3.511582579444621e-11
-3.2921191658171176e-10
6.719627193731616e-10
-4.2647495685222347e-10
5.198341850041062e-10
-3.563000055762316e-10
-5.58264101063636e-10
6.209699183342426e-10
2.3080562703881826e-10
-5.102438184749032e-10
7.307111218119134e-10
-6.085823003103238e-10
7.916798288214385e-10
2.755011235727905e-10
-7.119678618164636e-10
-1.495597673712838e-09
-7.666394479818725e-10
1.8906552693786964e-09
-7.108870896524956e-10
1.8166812791317742e-09
1.659252248185421e-10
-1.6496944571155682e-09
1.566238708803878e-10
1.882838586929417e-09
-2.0608112662744655e-09
4.5153725511964e-10
-1.7747914268047636e-09
-5.1801304383486226e-11
1.4564854043356537e-09
5.802878377466341e-10
-7.914280346291956e-10
-9.52111096624382e-10
1.3940308309169927e-09
-1.0600538907430421e-09
1.3877498420935093e-09
6.766689429250065e-10
-1.746772099891196e-09
9.992812876862514e-12
-1.6190798924060875e-09
6.215698127874917e-10
-1.9316316616304444e-09
2.137402081847607e-09
-9.808448914757508e-10
-2.2773850546789854e-09
7.221872968245014e-10
1.6910326729841076e-09
-1.2475411058402342e-09
-1.2815274341941824e-09
2.039581261471683e-09
3.0254354934762226e-10
-1.5230088467770067e-09
3.215331004812603e-10
-2.0625462182929414e-09
2.804293501617499e-10
1.4709850321208713e-09
-9.329072110937278e-10
1.2794887199686428e-09
-1.1907093057743147e-09
9.095617404483636e-10
1.4535151235768238e-09
-5.962414017709287e-10
-7.805349804979217e-10
1.0615417534860836e-09
2.6134312987069237e-10
1.1346260089668056e-09
-7.391661220518024e-10
-1.2087898238867157e-09
2.857745220122098e-10
3.070508995400663e-10
-1.191047862551047e-09
3.2972928802319995e-10
1.3170350199328737e-09
-1.317972702604154e-09
1.307424437587819e-09
1.7367184832604863e-10
-1.048706517353625e-09
-8.288752916814817e-10
1.2200773743333166e-09
-1.1634757413742996e-09
-8.299611995877757e-10
1.2204295721181488e-09
1.2609107661948383e-09
5.558205298225643e-10
-1.0498322633864359e-09
-7.520217865352921e-10
1.296163806894682e-09
2.125251382170875e-10
4.3680673270948045e-09
-7.352629923855796e-10
-8.858508122754778e-10
-4.395053166350474e-09
-4.3591988800643526e-09
6.656685013143044e-09
-1.9998251332325773e-09
2.020302306629328e-09
-3.319175892883926e-10
2.996043910842179e-09
-9.330905281009902e-09
4.928807739692993e-10
-1.8039578911659433e-09
5.528418241774684e-09
-2.0145964163925452e-09
-2.888803009462953e-09
3.0590662439545777e-09
-8.864700331845499e-11
1.3191911220530034e-09
1.6044867624131282e-09
-2.560758390730289e-09
-6.522901134522505e-10
2.557772401488113e-09
4.662034725818289e-10
-2.917258465930023e-09
-1.1497635185554623e-08
-1.0441909203619269e-08
6.041860316955273e-09
-1.5651265845169922e-08
1.7402089463238025e-08
-1.6072724432879558e-09
-1.0494790916770541e-08
1.1940472848155888e-08
2.7984791207393616e-09
-2.6938080407699023e-09
3.764051132305176e-09
8.929498071849575e-10
-6.705771212242743e-09
3.5719566109992682e-09
1.661826499120554e-09
-4.0772642534204337e-10
-3.471516683170089e-09
1.8211164389688202e-09
8.095989512612221e-09
-1.2616513984069712e-09
2.8141425693636773e-09
-1.2215715513617918e-09
4.06833498495894e-10
-1.8463298294044943e-09
1.433134271946062e-09
7.835829049899058e-10
2.8952197419883707e-10
-2.6506117904359913e-09
1.8633554088527775e-09
1.7847357681590043e-10
3.615583483918916e-09
-4.5631194016861235e-10
-1.3265648472559697e-09
3.4987086533324296e-09
-5.587492740130622e-09
1.6547582302340112e-09
-1.7350348190866637e-09
1.0110937116342188e-09
1.6580454048613748e-09
-1.659333155282997e-09
-1.0813547046597775e-09
1.0447336788271946e-09
-2.1519116085314754e-09
1.3889041181503065e-09
-2.2605487983569456e-09
-1.2262189673904543e-09
2.1021427763338043e-09
5.432042003798329e-08
1.707686978563452e-08
1.413023255851588e-08
-3.2557398256952076e-08
-7.53204129459096e-08
6.054731114246122e-08
-2.375435115978117e-08
-3.594071967065518e-08
5.982310441940083e-09
8.572156373851984e-08
-9.452373446653055e-08
-3.551254638238445e-09
-4.1131955815504485e-08
5.3362562805408106e-08
4.0200291973953694e-08
-1.638478249507622e-08
3.342533342147854e-08
-5.325505967747706e-08
-1.023642977333038e-08
1.6510079160827726e-08
-4.766152498668049e-09
-9.856048676265493e-09
1.0033387312908887e-08
3.6551625513245286e-08
-1.3414893784714351e-08
6.391758737047879e-08
-1.2103057222788675e-07
6.338299098614089e-08
-1.1147579742708549e-07
1.2120473671897083e-07
2.863523074022177e-09
-9.370430750238549e-08
1.1559391558621159e-07
-8.958317130571533e-08
1.7743474126940104e-08
7.790455561401881e-08
-6.619014168870883e-08
-7.807315177276578e-08
5.210236353933941e-09
3.7343467748842994e-08
6.543745615820488e-08
-5.770790727658718e-08
-3.394821558731149e-08
6.885842029344213e-08
-2.567276455848567e-08
2.2011110558562162e-08
3.2531943677500714e-08
-1.9779197039715877e-08
3.050392931381012e-08
-2.6708339194981823e-09
-4.0094780651877614e-08
1.1125255113440106e-08
-1.6336583780896812e-08
-1.9490379667472474e-08
1.2820391229290034e-08
1.8404974753508016e-08
2.3758816685509414e-08
-2.8527858417314747e-08
2.1754697701373705e-08
-4.4839975865247383e-08
1.333896180685005e-09
-3.737522831630866e-09
-7.083905107469168e-09
1.0443780228306246e-08
1.2564040600857171e-08
-4.388142946438934e-09
-5.57457253654189e-09
9.264477413513831e-09
-1.478839893596919e-08
-8.237051427630943e-10
-1.2949213297549662e-08
1.0170405989377902e-08
1.2182512520909538e-08
1.6754580909209108e-08
-1.0494289448522088e-09
-1.6061373864094375e-08
2.1024722534024598e-09
8.280133549895656e-10
-1.3770680861290289e-08
-2.6453395163570022e-08
6.520077508629598e-09
-5.518503359943113e-08
4.4768010597093116e-08
5.128551132147524e-08
-5.487662454401376e-08
-1.8178523969634184e-08
-2.9255371525893202e-08
-8.298682407624205e-09
-4.0441069586270364e-08
1.6892051088568134e-08
-2.675689624609462e-09
1.0452209177652465e-08
4.418886543856017e-09
-3.218042326111806e-08
6.217757672336231e-10
1.2912071734005257e-08
9.362693906799062e-09
-1.3810957983126995e-07
3.079609405181481e-07
1.494195135228999e-07
4.2036498371517194e-08
-1.6427153070361674e-07
-1.2183384552785984e-07
9.504472028055188e-08
-1.1800993860244563e-07
2.0379170444019983e-07
-7.592190989755172e-08
-1.3035868265986693e-07
1.3515599148949165e-07
1.4153290397189888e-07
2.257517118093556e-08
-4.4411215146053744e-08
-7.869012136808427e-08
7.964840788269462e-08
9.351151601429646e-08
9.506889660076117e-08
-9.844064753060693e-08
1.292667961458195e-07
-7.055730103059635e-11
2.5838349228598868e-08
1.4426864238319778e-08
-1.4210508975493897e-07
-4.614221445190592e-08
-4.126813303064354e-08
-9.630302455532157e-08
-1.0578877620568889e-08
9.956569064388347e-08
-9.853422291226102e-08
1.7602170972290018e-08
-2.826558246224926e-08
5.786567692070414e-08
1.3561373508898524e-07
-4.0359482626625325e-08
-4.408661373700149e-08
-5.765771882625406e-09
4.7446464144389355e-08
4.691968269689376e-09
3.9337362227704e-08
-4.210649603496643e-08
3.1840249939776017e-08
-3.078719725115251e-08
5.7561454031833014e-08
-7.24397003475275e-08
6.19860169302217e-08
2.0753833691504455e-07
1.876131365710718e-07
1.5457204735786353e-07
7.161092383823744e-08
7.339563653334778e-08
2.3170754204000897e-07
6.935416665292827e-08
1.430972733551807e-07
1.873386359219234e-07
-2.1654519019308067e-07
-4.59136169725286e-08
1.30058452335766e-07
-2.830786033722185e-08
1.9108811380279028e-07
1.5632884138012454e-07
1.8142579538636275e-07
1.3359224841766617e-07
1.584341734480646e-07
9.99757748419254e-08
4.977684085394603e-09
2.1058163205347829e-07
6.932287217505997e-08
-4.4373637139320255e-08
8.303407719247583e-08
-1.198474856307709e-08
-2.3715547510667417e-06
-1.8540282942736724e-06
-1.2171002835076203e-06
-1.958997973025465e-06
-1.0177260632555397e-06
-4.858222735451599e-07
-2.3358717461639787e-07
-5.765997025585473e-07
-1.3981972095348523e-06
-1.4235780355473533e-07
1.0954759939123905e-07
-2.159225524930669e-07
-4.942516359598051e-07
1.3289406294411532e-07
6.574444319469497e-08
1.481665459724132e-07
1.2842174491548786e-07
-2.2299680018329256e-09
-7.136188163818978e-07
-2.119744621673555e-07
3.614664817508193e-08
3.120764486651536e-07
-6.705113821059838e-08
2.1073747074122125e-07
2.5600925181611615e-07
2.8763364657781065e-08
9.837859287732161e-08
5.791784404042372e-08
4.666889777881982e-09
1.0510725946695706e-08
1.98537404544625e-07
9.677779110473858e-08
1.1443140502255351e-07
1.1942180275234763e-07
4.945356789771796e-08
-1.8775245497940507e-08
-5.521750164640468e-09
7.652043142821139e-09
-3.772273354209968e-08
2.579619933604318e-08
-6.265587290391705e-09
9.434825006534503e-08
-3.0879289263676056e-09
5.2543402190534945e-08
-8.026837975690526e-09
8.316561196955987e-08
2.4652221530300824e-08
-3.517682251045845e-06
-3.1316542234361577e-06
-3.397150168094339e-06
-3.0743925884450383e-06
-1.046490996748729e-06
-3.0148750344993102e-06
-3.278025482473662e-06
-2.877588000931827e-06
-2.2357022317213326e-06
9.992537176079463e-06
2.479610514698628e-06
-1.2943121751723871e-06
3.310383022508992e-06
-1.531317896975446e-06
-3.061900334603587e-06
-3.1140214718996572e-06
-2.7491324068163234e-06
-3.079974145265596e-06
-2.9133638559452665e-06
-1.8875030572143202e-06
-2.8064120578798364e-06
-5.179855708148645e-07
-1.2591330655339299e-06
-2.1290599460661895e-06
-1.0454443297345122e-06
4.3315294269653046e-05
3.627922243175348e-05
2.6970839819896125e-05
3.8138011135368547e-05
2.513517756307319e-05
1.557208111462024e-05
7.599885355183091e-06
1.718689661271418e-05
2.8691837284267574e-05
5.482814132178855e-06
7.486875645268555e-07
6.600692087993128e-06
1.4158197127559255e-05
-1.7200389445111137e-06
1.2367869195517268e-06
-1.7761203276010236e-06
-2.799142501114971e-06
1.9090590608005044e-06
1.8701146729383824e-05
8.714068952055715e-06
-2.5150738157931852e-06
-2.8952156067924018e-06
-1.9498198948938983e-06
-2.8926675447413316e-06
-3.0594128746832826e-06
-2.0534204212782105e-06
-9.414140914560619e-07
-1.5053661690534715e-06
-1.4280171553653073e-06
-2.098924025271138e-06
-3.129929955686568e-06
-2.487428867348242e-06
-2.9405069528585313e-06
5.638876412240589e-07
-1.7724206665346522e-06
1.365671737497372e-07
9.132889119796782e-08
1.9427015957100976e-07
-2.6564948697129367e-08
-5.39258964229372e-07
4.171698702217005e-08
-5.661980035488405e-07
-2.1372089682671626e-07
-9.278709799398086e-07
-1.5671117407905983e-06
-1.019656742227402e-06
-3.009613118036518e-07
4.6249642042448175e-05
2.3283844276047132e-05
4.6781091487945635e-05
4.98837139990052e-05
-2.4929275400170457e-05
2.644697400265718e-05
4.702264553800305e-05
4.836892464019153e-05
4.067143293462809e-05
-0.0002119262460028409
-9.231507502125308e-05
-1.813757553193045e-05
-0.00010348085263216648
-1.171764484894996e-05
2.9374179041097107e-05
4.621921027600449e-05
4.528348315370032e-05
4.671136112791132e-05
3.181001566366598e-05
3.704727352730679e-05
4.67380756270697e-05
1.5062657943044889e-05
2.7802640105122094e-05
3.882423745748944e-05
2.5953994330659565e-05
-0.0005146634141530302
-0.0005308277506814817
-0.00044639934571124413
-0.0005411454838134375
-0.00042887615049772324
-0.00030405610351994856
-0.0001815326003859105
-0.000321937590959843
-0.0004634430799830164
-0.00015264289850747644
-6.139728430569407e-05
-0.00016696055377104314
-0.0002863249139347491
-1.3027448831098552e-07
-7.132826674766518e-05
-5.585156855704112e-06
3.3576391822461126e-05
-8.164437293162146e-05
-0.0003399828656236392
-0.00019650400407204225
4.463567126637115e-05
3.76760689143536e-05
4.0268348125901093e-05
4.5371412504343044e-05
3.6368820987910963e-05
8.888028654465511e-06
2.0096068333506363e-05
3.058688727121127e-05
3.2908569220981694e-05
4.2360344191853215e-05
4.57608538972508e-05
4.3911989659680615e-05
3.502747394459363e-05
-5.220628073630482e-05
4.619005448186997e-06
-3.0948947159430486e-06
-4.767682946593415e-07
1.1467793078440111e-07
4.92001106245551e-06
1.2052944035485354e-05
4.22866179573054e-06
1.33459949569166e-05
5.467173414939891e-06
2.3892432818905856e-05
3.5185159863356794e-05
2.174572062788816e-05
1.1095118950960093e-05
-0.0004098548883407227
-1.1574036038642925e-05
-0.0004305386782382835
-0.0005753492479252019
0.000675216964677125
-5.7578221342864125e-05
-0.00044903893514012974
-0.0005746689501210087
-0.0005507660465524516
0.0028897616124335464
0.001560614277944803
0.0006002882880854441
0.0016629117389581197
0.0005269526861703772
-0.00010165740761281121
-0.000478737452494406
-0.0005689079029685485
-0.0004649460296016223
-0.00014328569446109474
-0.0005249632761322309
-0.0005722701049585989
-0.00027651944942118264
-0.00042839093381025184
-0.0005381455208197488
-0.0004111644815335041
0.0049077972933990344
0.00566630992723366
0.005177431380243526
0.005681093319011505
0.005087252312379753
0.003950976641455263
0.0026496544910786066
0.004071105797878142
0.005262075368396786
0.0024071133580222093
0.0012592799646795115
0.0025287045765906586
0.0038280729606179984
0.0003862000921925262
0.0013587390563749799
0.00045539382619589697
-0.00018206320518352763
0.0014592549419194226
0.00418827555501343
0.0027699919836695897
-0.0005087717776086865
-0.00028413649653254733
-0.0005501524863273301
-0.0005008454837366748
-0.0002525880287230802
0.0002553899440506601
-0.00035793095653121487
-0.00047978269784013615
-0.000495559717622783
-0.0005578689740254578
-0.0004908307676460322
-0.0005641687066388904
-0.00021848171750822056
0.0011614806003913897
0.0003196274165154072
1.9837269928132306e-05
-3.2187970207588363e-05
-4.013428323933039e-05
-0.00012756417425476224
-0.00024374820125449014
-0.00011527708515108912
-0.00025995199537868173
-0.00014006105676906606
-0.0003934996611848981
-0.0005106788455749615
-0.000375707989180766
-0.00022779343667511407
0.0038777982637125405
0.00024324940927219517
0.004030498013735427
0.005582954632114762
-0.005715421591216586
0.0005269209964325566
0.004176780768295083
0.00561737482050904
0.0056533799025282406
-0.02432346210161578
-0.013522788510705706
-0.005299818989761567
-0.01404577497590404
-0.004885305399020301
0.0008061397290966911
0.004449430185590781
0.005666478690769263
0.004316533149104706
0.0010804098756755452
0.00554514565783944
0.005645262937688602
0.0033579738513914255
0.0047244282691308315
0.00560194827198292
0.004624170084993846
-0.05357523118743401
-0.0526964666734433
-0.04542644488309344
-0.0528814439903638
-0.04499200463066289
-0.03439805948758804
-0.023162592986813127
-0.03495895655959748
-0.0458447765031399
-0.021967468215748392
-0.011934408335013202
-0.022569300040696273
-0.03382373010056136
-0.0040612541185081905
-0.012466923598626244
-0.004472363723094027
0.001349458418378257
-0.012996485031175299
-0.03550647091533441
-0.023747283908324653
0.00480476851747395
0.0021214738613699693
0.005688404620394435
0.004693807690187528
0.0018703905124486666
-0.0032460752701146105
0.004302212727545036
0.005341257931153408
0.005414841280112708
0.005688176316810378
0.004575328611221761
0.005680848483473955
0.001612901837010555
-0.011399140287971985
-0.0036523925852852326
3.622876696316077e-05
0.0007520780233368261
0.0008308599872908315
0.0018701318288088622
0.003126309800192479
0.0017662729403896192
0.003242870108019874
0.001974469212854162
0.004520311737146078
0.00548271679868135
0.004413012619540334
0.0030086100061539303
-0.05213490884895018
-0.04038811805229573
-0.05234425407305582
-0.05379023934466102
-0.015723923991155655
-0.04091593036225499
-0.05254633518226266
-0.053698369862733714
-0.048047000753185076
0.08068051222633245
0.02312544569669808
-0.016552306010745498
0.024184367996686915
-0.017386758564195488
-0.04144272596156301
-0.0529259476989674
-0.05347827458758761
-0.05274034997518467
-0.04196791736730577
-0.047368403970459244
-0.0535945304405868
-0.026540870618419435
-0.03805338868981343
-0.04771433665915529
-0.03756838525493977
0.45061651609916176
0.34181700915964364
0.2410999848940001
0.34241848811337744
0.24014266497520362
0.1515019169616595
0.0783179544807819
0.1526576758889138
0.24203927056311705
0.07587928018639564
0.019868302428626996
0.07710848678381109
0.1503251208898607
-0.019074161141932614
0.020967783951735205
-0.01822747399348225
-0.04249120552912238
0.022053433709054892
0.15379298111216483
0.0795085024831966
-0.053427742583981856
-0.04404623592872309
-0.053051461013609115
-0.05327012819592092
-0.04353065391396793
-0.020785442209231102
-0.03604091832957013
-0.04624770353156001
-0.046635485587862666
-0.05320722350543092
-0.05310263086753054
-0.05334938029712343
-0.04301216725016288
0.018754669667025183
-0.019926884386092986
-4.456597824117364e-05
-0.006132124362163062
-0.006549446313972201
-0.01508082244205944
-0.025449662805582644
-0.01456519304767911
-0.025999584984799907
-0.01559252244956093
-0.03707148290296068
-0.04700896091888242
-0.036562523307666545
-0.02489084170182111
0.45184790192754387
0.5592229578322944
0.4517026745648632
0.34631960889091085
0.663896478922612
0.5594767660924884
0.4515551525618588
0.3457925823851552
0.24732108627267144
0.8465473547504413
0.7619387110088273
0.6645177619082693
0.7610354182712787
0.6651506340373131
0.5597356355796267
0.4512527908553484
0.3447100852907655
0.4514051595301684
0.559999897339024
0.2456246228752475