# vtk DataFile Version 2.0
Packing Fraction Fields
ASCII
DATASET UNSTRUCTURED_GRID
POINTS 4225 double
0.4375 0.875 0.0
0.46875 0.875 0.0
0.46875 0.90625 0.0
0.4375 0.90625 0.0
0.4375 0.9375 0.0
0.46875 0.9375 0.0
0.5 0.9375 0.0
0.5 0.90625 0.0
0.5 0.875 0.0
0.375 0.9375 0.0
0.375 0.90625 0.0
0.40625 0.90625 0.0
0.40625 0.9375 0.0
0.40625 0.875 0.0
0.375 0.875 0.0
0.4375 1.0 0.0
0.40625 1.0 0.0
0.40625 0.96875 0.0
0.4375 0.96875 0.0
0.375 0.96875 0.0
0.375 1.0 0.0
0.5 0.96875 0.0
0.46875 0.96875 0.0
0.46875 1.0 0.0
0.5 1.0 0.0
0.4375 0.75 0.0
0.46875 0.75 0.0
0.46875 0.78125 0.0
0.4375 0.78125 0.0
0.4375 0.8125 0.0
0.46875 0.8125 0.0
0.5 0.8125 0.0
0.5 0.78125 0.0
0.5 0.75 0.0
0.375 0.8125 0.0
0.375 0.78125 0.0
0.40625 0.78125 0.0
0.40625 0.8125 0.0
0.40625 0.75 0.0
0.375 0.75 0.0
0.40625 0.84375 0.0
0.4375 0.84375 0.0
0.375 0.84375 0.0
0.5 0.84375 0.0
0.46875 0.84375 0.0
0.4375 0.625 0.0
0.46875 0.625 0.0
0.46875 0.65625 0.0
0.4375 0.65625 0.0
0.4375 0.6875 0.0
0.46875 0.6875 0.0
0.5 0.6875 0.0
0.5 0.65625 0.0
0.5 0.625 0.0
0.375 0.6875 0.0
0.375 0.65625 0.0
0.40625 0.65625 0.0
0.40625 0.6875 0.0
0.40625 0.625 0.0
0.375 0.625 0.0
0.40625 0.71875 0.0
0.4375 0.71875 0.0
0.375 0.71875 0.0
0.5 0.71875 0.0
0.46875 0.71875 0.0
0.4375 0.5 0.0
0.46875 0.5 0.0
0.46875 0.53125 0.0
0.4375 0.53125 0.0
0.4375 0.5625 0.0
0.46875 0.5625 0.0
0.5 0.5625 0.0
0.5 0.53125 0.0
0.5 0.5 0.0
0.375 0.5625 0.0
0.375 0.53125 0.0
0.40625 0.53125 0.0
0.40625 0.5625 0.0
0.40625 0.5 0.0
0.375 0.5 0.0
0.40625 0.59375 0.0
0.4375 0.59375 0.0
0.375 0.59375 0.0
0.5 0.59375 0.0
0.46875 0.59375 0.0
0.4375 0.375 0.0
0.46875 0.375 0.0
0.46875 0.40625 0.0
0.4375 0.40625 0.0
0.4375 0.4375 0.0
0.46875 0.4375 0.0
0.5 0.4375 0.0
0.5 0.40625 0.0
0.5 0.375 0.0
0.375 0.4375 0.0
0.375 0.40625 0.0
0.40625 0.40625 0.0
0.40625 0.4375 0.0
0.40625 0.375 0.0
0.375 0.375 0.0
0.40625 0.46875 0.0
0.4375 0.46875 0.0
0.375 0.46875 0.0
0.5 0.46875 0.0
0.46875 0.46875 0.0
0.4375 0.25 0.0
0.46875 0.25 0.0
0.46875 0.28125 0.0
0.4375 0.28125 0.0
0.4375 0.3125 0.0
0.46875 0.3125 0.0
0.5 0.3125 0.0
0.5 0.28125 0.0
0.5 0.25 0.0
0.375 0.3125 0.0
0.375 0.28125 0.0
0.40625 0.28125 0.0
0.40625 0.3125 0.0
0.40625 0.25 0.0
0.375 0.25 0.0
0.40625 0.34375 0.0
0.4375 0.34375 0.0
0.375 0.34375 0.0
0.5 0.34375 0.0
0.46875 0.34375 0.0
0.4375 0.125 0.0
0.46875 0.125 0.0
0.46875 0.15625 0.0
0.4375 0.15625 0.0
0.4375 0.1875 0.0
0.46875 0.1875 0.0
0.5 0.1875 0.0
0.5 0.15625 0.0
0.5 0.125 0.0
0.375 0.1875 0.0
0.375 0.15625 0.0
0.40625 0.15625 0.0
0.40625 0.1875 0.0
0.40625 0.125 0.0
0.375 0.125 0.0
0.40625 0.21875 0.0
0.4375 0.21875 0.0
0.375 0.21875 0.0
0.5 0.21875 0.0
0.46875 0.21875 0.0
0.4375 0.0 0.0
0.46875 0.0 0.0
0.46875 0.03125 0.0
0.4375 0.03125 0.0
0.4375 0.0625 0.0
0.46875 0.0625 0.0
0.5 0.0625 0.0
0.5 0.03125 0.0
0.5 0.0 0.0
0.375 0.0625 0.0
0.375 0.03125 0.0
0.40625 0.03125 0.0
0.40625 0.0625 0.0
0.40625 0.0 0.0
0.375 0.0 0.0
0.40625 0.09375 0.0
0.4375 0.09375 0.0
0.375 0.09375 0.0
0.5 0.09375 0.0
0.46875 0.09375 0.0
0.4375 -0.125 0.0
0.46875 -0.125 0.0
0.46875 -0.09375 0.0
0.4375 -0.09375 0.0
0.4375 -0.0625 0.0
0.46875 -0.0625 0.0
0.5 -0.0625 0.0
0.5 -0.09375 0.0
0.5 -0.125 0.0
0.375 -0.0625 0.0
0.375 -0.09375 0.0
0.40625 -0.09375 0.0
0.40625 -0.0625 0.0
0.40625 -0.125 0.0
0.375 -0.125 0.0
0.40625 -0.03125 0.0
0.4375 -0.03125 0.0
0.375 -0.03125 0.0
0.5 -0.03125 0.0
0.46875 -0.03125 0.0
0.4375 -0.25 0.0
0.46875 -0.25 0.0
0.46875 -0.21875 0.0
0.4375 -0.21875 0.0
0.4375 -0.1875 0.0
0.46875 -0.1875 0.0
0.5 -0.1875 0.0
0.5 -0.21875 0.0
0.5 -0.25 0.0
0.375 -0.1875 0.0
0.375 -0.21875 0.0
0.40625 -0.21875 0.0
0.40625 -0.1875 0.0
0.40625 -0.25 0.0
0.375 -0.25 0.0
0.40625 -0.15625 0.0
0.4375 -0.15625 0.0
0.375 -0.15625 0.0
0.5 -0.15625 0.0
0.46875 -0.15625 0.0
0.4375 -0.375 0.0
0.46875 -0.375 0.0
0.46875 -0.34375 0.0
0.4375 -0.34375 0.0
0.4375 -0.3125 0.0
0.46875 -0.3125 0.0
0.5 -0.3125 0.0
0.5 -0.34375 0.0
0.5 -0.375 0.0
0.375 -0.3125 0.0
0.375 -0.34375 0.0
0.40625 -0.34375 0.0
0.40625 -0.3125 0.0
0.40625 -0.375 0.0
0.375 -0.375 0.0
0.40625 -0.28125 0.0
0.4375 -0.28125 0.0
0.375 -0.28125 0.0
0.5 -0.28125 0.0
0.46875 -0.28125 0.0
0.4375 -0.5 0.0
0.46875 -0.5 0.0
0.46875 -0.46875 0.0
0.4375 -0.46875 0.0
0.4375 -0.4375 0.0
0.46875 -0.4375 0.0
0.5 -0.4375 0.0
0.5 -0.46875 0.0
0.5 -0.5 0.0
0.375 -0.4375 0.0
0.375 -0.46875 0.0
0.40625 -0.46875 0.0
0.40625 -0.4375 0.0
0.40625 -0.5 0.0
0.375 -0.5 0.0
0.40625 -0.40625 0.0
0.4375 -0.40625 0.0
0.375 -0.40625 0.0
0.5 -0.40625 0.0
0.46875 -0.40625 0.0
0.4375 -0.625 0.0
0.46875 -0.625 0.0
0.46875 -0.59375 0.0
0.4375 -0.59375 0.0
0.4375 -0.5625 0.0
0.46875 -0.5625 0.0
0.5 -0.5625 0.0
0.5 -0.59375 0.0
0.5 -0.625 0.0
0.375 -0.5625 0.0
0.375 -0.59375 0.0
0.40625 -0.59375 0.0
0.40625 -0.5625 0.0
0.40625 -0.625 0.0
0.375 -0.625 0.0
0.40625 -0.53125 0.0
0.4375 -0.53125 0.0
0.375 -0.53125 0.0
0.5 -0.53125 0.0
0.46875 -0.53125 0.0
0.4375 -0.75 0.0
0.46875 -0.75 0.0
0.46875 -0.71875 0.0
0.4375 -0.71875 0.0
0.4375 -0.6875 0.0
0.46875 -0.6875 0.0
0.5 -0.6875 0.0
0.5 -0.71875 0.0
0.5 -0.75 0.0
0.375 -0.6875 0.0
0.375 -0.71875 0.0
0.40625 -0.71875 0.0
0.40625 -0.6875 0.0
0.40625 -0.75 0.0
0.375 -0.75 0.0
0.40625 -0.65625 0.0
0.4375 -0.65625 0.0
0.375 -0.65625 0.0
0.5 -0.65625 0.0
0.46875 -0.65625 0.0
0.4375 -0.875 0.0
0.46875 -0.875 0.0
0.46875 -0.84375 0.0
0.4375 -0.84375 0.0
0.4375 -0.8125 0.0
0.46875 -0.8125 0.0
0.5 -0.8125 0.0
0.5 -0.84375 0.0
0.5 -0.875 0.0
0.375 -0.8125 0.0
0.375 -0.84375 0.0
0.40625 -0.84375 0.0
0.40625 -0.8125 0.0
0.40625 -0.875 0.0
0.375 -0.875 0.0
0.40625 -0.78125 0.0
0.4375 -0.78125 0.0
0.375 -0.78125 0.0
0.5 -0.78125 0.0
0.46875 -0.78125 0.0
0.4375 -1.0 0.0
0.46875 -1.0 0.0
0.46875 -0.96875 0.0
0.4375 -0.96875 0.0
0.4375 -0.9375 0.0
0.46875 -0.9375 0.0
0.5 -0.9375 0.0
0.5 -0.96875 0.0
0.5 -1.0 0.0
0.375 -0.9375 0.0
0.375 -0.96875 0.0
0.40625 -0.96875 0.0
0.40625 -0.9375 0.0
0.40625 -1.0 0.0
0.375 -1.0 0.0
0.40625 -0.90625 0.0
0.4375 -0.90625 0.0
0.375 -0.90625 0.0
0.5 -0.90625 0.0
0.46875 -0.90625 0.0
0.3125 0.875 0.0
0.34375 0.875 0.0
0.34375 0.90625 0.0
0.3125 0.90625 0.0
0.3125 0.9375 0.0
0.34375 0.9375 0.0
0.25 0.9375 0.0
0.25 0.90625 0.0
0.28125 0.90625 0.0
0.28125 0.9375 0.0
0.28125 0.875 0.0
0.25 0.875 0.0
0.3125 1.0 0.0
0.28125 1.0 0.0
0.28125 0.96875 0.0
0.3125 0.96875 0.0
0.25 0.96875 0.0
0.25 1.0 0.0
0.34375 0.96875 0.0
0.34375 1.0 0.0
0.3125 0.75 0.0
0.34375 0.75 0.0
0.34375 0.78125 0.0
0.3125 0.78125 0.0
0.3125 0.8125 0.0
0.34375 0.8125 0.0
0.25 0.8125 0.0
0.25 0.78125 0.0
0.28125 0.78125 0.0
0.28125 0.8125 0.0
0.28125 0.75 0.0
0.25 0.75 0.0
0.28125 0.84375 0.0
0.3125 0.84375 0.0
0.25 0.84375 0.0
0.34375 0.84375 0.0
0.3125 0.625 0.0
0.34375 0.625 0.0
0.34375 0.65625 0.0
0.3125 0.65625 0.0
0.3125 0.6875 0.0
0.34375 0.6875 0.0
0.25 0.6875 0.0
0.25 0.65625 0.0
0.28125 0.65625 0.0
0.28125 0.6875 0.0
0.28125 0.625 0.0
0.25 0.625 0.0
0.28125 0.71875 0.0
0.3125 0.71875 0.0
0.25 0.71875 0.0
0.34375 0.71875 0.0
0.3125 0.5 0.0
0.34375 0.5 0.0
0.34375 0.53125 0.0
0.3125 0.53125 0.0
0.3125 0.5625 0.0
0.34375 0.5625 0.0
0.25 0.5625 0.0
0.25 0.53125 0.0
0.28125 0.53125 0.0
0.28125 0.5625 0.0
0.28125 0.5 0.0
0.25 0.5 0.0
0.28125 0.59375 0.0
0.3125 0.59375 0.0
0.25 0.59375 0.0
0.34375 0.59375 0.0
0.3125 0.375 0.0
0.34375 0.375 0.0
0.34375 0.40625 0.0
0.3125 0.40625 0.0
0.3125 0.4375 0.0
0.34375 0.4375 0.0
0.25 0.4375 0.0
0.25 0.40625 0.0
0.28125 0.40625 0.0
0.28125 0.4375 0.0
0.28125 0.375 0.0
0.25 0.375 0.0
0.28125 0.46875 0.0
0.3125 0.46875 0.0
0.25 0.46875 0.0
0.34375 0.46875 0.0
0.3125 0.25 0.0
0.34375 0.25 0.0
0.34375 0.28125 0.0
0.3125 0.28125 0.0
0.3125 0.3125 0.0
0.34375 0.3125 0.0
0.25 0.3125 0.0
0.25 0.28125 0.0
0.28125 0.28125 0.0
0.28125 0.3125 0.0
0.28125 0.25 0.0
0.25 0.25 0.0
0.28125 0.34375 0.0
0.3125 0.34375 0.0
0.25 0.34375 0.0
0.34375 0.34375 0.0
0.3125 0.125 0.0
0.34375 0.125 0.0
0.34375 0.15625 0.0
0.3125 0.15625 0.0
0.3125 0.1875 0.0
0.34375 0.1875 0.0
0.25 0.1875 0.0
0.25 0.15625 0.0
0.28125 0.15625 0.0
0.28125 0.1875 0.0
0.28125 0.125 0.0
0.25 0.125 0.0
0.28125 0.21875 0.0
0.3125 0.21875 0.0
0.25 0.21875 0.0
0.34375 0.21875 0.0
0.3125 0.0 0.0
0.34375 0.0 0.0
0.34375 0.03125 0.0
0.3125 0.03125 0.0
0.3125 0.0625 0.0
0.34375 0.0625 0.0
0.25 0.0625 0.0
0.25 0.03125 0.0
0.28125 0.03125 0.0
0.28125 0.0625 0.0
0.28125 0.0 0.0
0.25 0.0 0.0
0.28125 0.09375 0.0
0.3125 0.09375 0.0
0.25 0.09375 0.0
0.34375 0.09375 0.0
0.3125 -0.125 0.0
0.34375 -0.125 0.0
0.34375 -0.09375 0.0
0.3125 -0.09375 0.0
0.3125 -0.0625 0.0
0.34375 -0.0625 0.0
0.25 -0.0625 0.0
0.25 -0.09375 0.0
0.28125 -0.09375 0.0
0.28125 -0.0625 0.0
0.28125 -0.125 0.0
0.25 -0.125 0.0
0.28125 -0.03125 0.0
0.3125 -0.03125 0.0
0.25 -0.03125 0.0
0.34375 -0.03125 0.0
0.3125 -0.25 0.0
0.34375 -0.25 0.0
0.34375 -0.21875 0.0
0.3125 -0.21875 0.0
0.3125 -0.1875 0.0
0.34375 -0.1875 0.0
0.25 -0.1875 0.0
0.25 -0.21875 0.0
0.28125 -0.21875 0.0
0.28125 -0.1875 0.0
0.28125 -0.25 0.0
0.25 -0.25 0.0
0.28125 -0.15625 0.0
0.3125 -0.15625 0.0
0.25 -0.15625 0.0
0.34375 -0.15625 0.0
0.3125 -0.375 0.0
0.34375 -0.375 0.0
0.34375 -0.34375 0.0
0.3125 -0.34375 0.0
0.3125 -0.3125 0.0
0.34375 -0.3125 0.0
0.25 -0.3125 0.0
0.25 -0.34375 0.0
0.28125 -0.34375 0.0
0.28125 -0.3125 0.0
0.28125 -0.375 0.0
0.25 -0.375 0.0
0.28125 -0.28125 0.0
0.3125 -0.28125 0.0
0.25 -0.28125 0.0
0.34375 -0.28125 0.0
0.3125 -0.5 0.0
0.34375 -0.5 0.0
0.34375 -0.46875 0.0
0.3125 -0.46875 0.0
0.3125 -0.4375 0.0
0.34375 -0.4375 0.0
0.25 -0.4375 0.0
0.25 -0.46875 0.0
0.28125 -0.46875 0.0
0.28125 -0.4375 0.0
0.28125 -0.5 0.0
0.25 -0.5 0.0
0.28125 -0.40625 0.0
0.3125 -0.40625 0.0
0.25 -0.40625 0.0
0.34375 -0.40625 0.0
0.3125 -0.625 0.0
0.34375 -0.625 0.0
0.34375 -0.59375 0.0
0.3125 -0.59375 0.0
0.3125 -0.5625 0.0
0.34375 -0.5625 0.0
0.25 -0.5625 0.0
0.25 -0.59375 0.0
0.28125 -0.59375 0.0
0.28125 -0.5625 0.0
0.28125 -0.625 0.0
0.25 -0.625 0.0
0.28125 -0.53125 0.0
0.3125 -0.53125 0.0
0.25 -0.53125 0.0
0.34375 -0.53125 0.0
0.3125 -0.75 0.0
0.34375 -0.75 0.0
0.34375 -0.71875 0.0
0.3125 -0.71875 0.0
0.3125 -0.6875 0.0
[...]
POINT_DATA 4225
SCALARS Radiance double
LOOKUP_TABLE default
0.17678350798234954
0.07958801463349101
0.17831622580484133
0.2985812322938901
0.43452053470852703
0.29930162930770143
0.17980715277070453
0.08145527224368301
0.009806280591760594
0.7103280543325023
0.5764896093580079
0.43475866213389347
0.5753014470843164
0.2977247008275474
0.4347976125243518
0.705186531096148
0.8233965248916948
0.7080448826204948
0.5737522481056729
0.8265164830303324
0.9185304032636432
0.29981969227159655
0.43397311382002934
0.57163350607185
0.43294633753085543
-0.05475567928254612
-0.054443944103958454
-0.054306501894537444
-0.036611111232802356
0.0064247329761154695
-0.03547688378014974
-0.053784448054125626
-0.05457916211701662
-0.04377096508243561
0.1735996507403597
0.07410111255746413
0.0048020471053864325
0.07593207014185772
-0.037696260097140936
0.0031937692080644315
0.17521245006780636
0.07775616143084059
0.29677105742640114
-0.034268800038534455
0.008082718429194618
-0.011557355446313573
-0.0012545076909592093
-0.012352510562066508
-0.026508155849317695
-0.042502982833887065
-0.027361638638913582
-0.013136674504308554
-0.0018231863860686183
0.004666122075782679
-0.05550221783390099
-0.053690702358409705
-0.04179940244878722
-0.05399149015108317
-0.025625824649211596
-0.041054306326140676
-0.055150424166169526
-0.05424429081979592
-0.03875056899947963
-0.028184447500934812
-0.043161977737756665
0.005807118311302759
0.0038032939221685907
0.005964154344627333
0.006878654749563618
0.005216437646249486
0.0068719045982533365
0.006107853996424723
0.0040091711205312046
0.001791532997990785
-0.009939454822754613
0.00041277949124101206
0.005466971991161853
-0.0001351230121319163
0.006867170018346948
0.005699305535907956
-0.01075258703834176
-0.0006909978940313969
-0.024717013265008934
0.006846667943910022
0.004949391377265901
-0.00075114931341431
-0.0008482285482652469
-0.0007168711455065682
-6.113719761971738e-05
0.0014270645873818782
4.810933631090032e-05
-0.0006757135899078749
-0.0008606324960598644
-0.0006678329705679062
0.00545291199349878
0.0031530486906791977
0.0012478606426858296
0.0033744996302380935
-0.0001640945323296069
0.0010708875880063628
0.005636556571463957
0.0035917210614763123
0.006836785391910819
0.0001624419520563414
0.0016087015703854031
-4.779329518511921e-05
6.394754296138868e-05
-7.095017693446976e-05
-0.0002832807647758614
-0.0005923159860316242
-0.0003199860282113452
-9.534529808364719e-05
5.414881967731476e-05
0.00010072053728848712
-0.0008005393640991634
-0.000783983068581846
-0.0005519140119920114
-0.0008097638138968177
-0.0002473581644766544
-0.0005106863481174751
-0.0007792931983016605
-0.0008312043690798954
-0.00026026339114070104
-0.00035725971269681136
-0.0006308615415196084
3.602073399047725e-05
1.0785817073028542e-05
4.1627020240484215e-05
7.325996579091653e-05
9.776204734505294e-05
7.915524891967262e-05
4.751664542631795e-05
1.4346428940566878e-05
-4.57405729532221e-06
-7.195937468933444e-06
8.326399462122596e-05
9.486146979253835e-05
7.851887103498234e-05
6.691560310003112e-05
9.108625128550738e-05
-2.6653007554184038e-05
7.193900477915121e-05
-0.00021223190605982155
8.497622664062751e-05
9.983547776464116e-05
-7.36513901389269e-06
-4.153877186938189e-06
-8.160949284904566e-06
-9.943251407788449e-06
-6.905191231809678e-06
-1.0362107359665969e-05
-8.948830909506784e-06
-4.952615994730833e-06
-1.4571361088990184e-06
2.552653629232811e-05
1.8269537583290886e-06
-7.696728349393905e-06
4.4690680555877045e-06
-9.539790609113658e-06
-8.15727033078178e-06
3.066665821770678e-05
7.340916430539094e-06
6.067292879681515e-05
-1.048929214177794e-05
-5.892466117223574e-06
8.685104659138065e-07
7.00043234450855e-07
9.599580213270316e-07
6.217326921783808e-07
-6.591321166024665e-07
5.410665608258871e-07
9.464760320617304e-07
8.067959903292254e-07
4.601521402168543e-07
-5.791920534994563e-06
-2.3132846526924606e-06
-4.131784465757779e-07
-2.8726073157903107e-06
7.000411566680089e-07
-1.303583653425325e-07
-6.515745403770669e-06
-3.541028358052547e-06
-8.89628207610084e-06
4.447333571054828e-07
-1.0775783196755457e-06
-5.1234872610526447e-08
-1.0822819508652053e-07
-1.992214321400329e-08
2.267392593285693e-08
3.051348068140005e-07
1.0992851146535462e-07
-6.826410508699292e-08
-6.113719148409073e-08
-2.9364426532115174e-08
7.313366442687855e-07
4.797694677849627e-07
2.2985440623907487e-07
5.226993174297586e-07
6.13747967546049e-08
1.6475985419544338e-07
8.175607355655707e-07
6.373001123318677e-07
7.144781298218789e-07
1.1656109332400747e-07
3.3405854896442636e-07
-2.7485504152822e-09
-3.852878820084429e-08
9.576424912249293e-09
-5.902477314360856e-08
-5.045562595465707e-08
5.659753769101712e-09
-4.000138770615745e-08
2.466358340342133e-08
4.037410168338062e-08
-3.1187719369027474e-08
-3.638399677339078e-08
-2.526233603094256e-08
-8.47680868161917e-08
1.6842248361082865e-08
-6.04521038884555e-08
-6.771362391446978e-08
-3.0658785423469375e-08
-4.051628210068994e-09
-6.123786911979151e-08
-7.031644987593581e-08
9.172350873115547e-09
-2.769653608470143e-08
1.015926874181518e-08
-3.262671056102449e-08
-8.377130242257176e-09
4.3379147171328035e-08
-1.8093454950113596e-08
2.150367003874938e-08
1.845693104660081e-08
3.698258772296301e-08
1.343943949431203e-08
3.2393558756266144e-08
-2.739194474715709e-08
3.079092268141612e-08
-3.383846667168485e-08
-3.031733266269765e-08
4.76643403089882e-08
-3.146785684781371e-08
-2.7064090334110947e-08
-6.7436919242220686e-09
-1.8211729758525289e-09
-6.376987624521216e-09
4.946150138500326e-09
-2.0299638187063676e-08
-2.972671674299678e-09
1.82503551463822e-08
-9.4769561834757e-09
5.487878035761646e-09
-1.4132683206880627e-09
3.492979503357551e-08
1.4516816037570462e-08
1.3406302633390262e-08
-2.5189381871771217e-08
1.906639522211929e-08
-2.1936099311468474e-08
-2.1525017315327713e-08
3.18501758084072e-08
-1.0423092205166292e-08
-1.4336151372811596e-08
-9.276927915932315e-09
1.6852019055247481e-09
6.735601624931769e-09
-7.2710218074857866e-09
4.888725226286657e-09
1.2902731470340996e-09
-3.3577130823310554e-09
1.0264983484734689e-08
5.770095788475118e-10
-1.4447978195108162e-08
8.870454590006457e-09
9.505940332459269e-09
-3.4689865411947784e-09
-8.099531838991333e-09
-2.7876459928786403e-09
2.7779781901155182e-09
-4.020598648154531e-09
6.7687368065759375e-09
-1.5718418951234914e-08
-1.1625064286724117e-09
7.786425439990065e-10
6.763551210210778e-09
2.2156011194045223e-09
-1.197387743303317e-08
1.0133528417771347e-08
-5.4411880583829e-09
-5.420828526759254e-09
1.357016021518176e-08
4.254169832588641e-09
-9.106185773453002e-09
-7.646820557690017e-09
-4.9331849228497945e-09
-1.6721195289049175e-09
9.60988963103037e-09
-1.018571816206781e-08
6.524550530634856e-09
4.39458199819887e-09
-1.0532657887805043e-08
-1.6915668731665705e-09
-2.473345380927535e-09
1.1870387345675132e-08
0.0
0.0
-2.6446440609032378e-09
1.5040227538705073e-09
-4.620866003769498e-09
7.653262186157403e-11
3.83134769236471e-09
1.7683080581541369e-09
0.0
-2.672472938757212e-09
-2.9660005794906722e-09
1.0558927468121268e-09
5.83206327787908e-09
0.0
0.0
-9.29411842475648e-10
-5.9363333422374465e-09
6.4721322528152215e-09
-4.124434914596975e-09
8.164672222436512e-09
0.7139532459815976
0.5774515967825679
0.7122506274468785
0.8314045112605252
0.9238892926033458
0.8291211203695954
1.0302230662207277
0.9925282330974959
0.9260980489059674
0.990779168416691
0.8334963662000298
0.9281509448477941
1.0276099986568665
1.0453717520446455
1.0290280522565134
0.9888319442856175
1.0459317602559755
1.0459831392800139
0.9214196363255286
0.986568994284639
0.17024404167852178
0.07224979640856946
0.17194401726864125
0.29465541928493527
0.4345295583211327
0.2957442949094193
0.7170418220244049
0.5797217801708278
0.4342929599440661
0.5790206110755807
0.29351483882871243
0.43401390089150305
0.7155301449509915
0.5782765902966281
0.8354816605596578
0.43470623850091467
-0.05609942780513744
-0.053346090755318695
-0.05581721698729926
-0.04080622846167445
-3.183069098894601e-05
-0.039784741525634826
0.16670172284125548
0.06649647546500811
-0.0016662085772338436
0.06845399467295651
-0.04181852715888989
-0.003321616666242361
0.16849758923865438
0.07036993816457929
0.2923271011000839
0.0015857117756032059
-0.008293706125137862
0.000950867428041217
-0.009119580035952625
-0.022821376918129303
-0.03944446646281044
-0.02378173420594567
-0.05657117682481384
-0.05205458676450011
-0.0385793816422259
-0.0525286781585717
-0.021836052811522053
-0.037673538422510276
-0.05635054850144708
-0.05295860121095425
-0.042824780860963106
-0.040269311018321506
0.005047311921298051
0.0029275964893323648
0.0052562718784733
0.006717263024082199
0.0061062530247196385
0.006787033975940873
-0.006629592492919168
0.0024916321700764366
0.006277864006936271
0.0019919391377804527
0.006627410268285916
0.006426544199789875
-0.007463257593653539
0.0014777423762372833
-0.020826089891866944
0.005912860490189401
-0.0008226419733411295
-0.0007541391381592973
-0.0008151673981668769
-0.0004309373612544224
0.0007293134411160852
-0.0003494797925948438
0.0045928463138668885
0.002236597114747257
0.0005659529573881218
0.0024684986367918384
-0.0005042886118064678
0.00040883110513985024
0.004825850511179741
0.002698973912900404
0.006516699518182645
0.0008979599862255574
2.562330120964856e-05
8.66384228449042e-05
1.0226159457988072e-05
-0.00014628570876142343
-0.0004253684470433081
-0.0001786402726738799
-0.0008175436334389928
-0.0006435009388196382
-0.0003823787476050299
-0.0006834902024513267
-0.00011589348789807292
-0.00033952156303760495
-0.0008235552525671793
-0.000720754350524699
-0.000568838106692858
-0.0004682025382640909
1.6397491374848185e-05
-3.254264161890831e-07
2.083467505872616e-05
4.797354627823588e-05
8.140915101110646e-05
5.423392973449621e-05
5.0000661892912626e-05
8.76221679784618e-05
7.56599765334095e-05
8.869284606408282e-05
4.177584729023518e-05
6.962687580026184e-05
3.89320271619119e-05
8.830467209207736e-05
-8.726777479534376e-05
8.652788511752149e-05
-4.289075865818563e-06
-1.8240530059433445e-06
-4.9412251300865936e-06
-7.56623812256459e-06
-8.450264656995938e-06
-8.294673225257824e-06
8.917404343268197e-06
-4.781427836399512e-06
-8.407134296978958e-06
-3.640567003196014e-06
-6.794339798206712e-06
-7.995798015131517e-06
1.2505485651123596e-05
-2.1888770925280834e-06
3.58396977792705e-05
-8.476752010790194e-06
5.889149240458728e-07
3.754815919763639e-07
6.682507138841218e-07
6.890818068187389e-07
2.3369999142333757e-07
7.166293753575957e-07
-2.9665731052308676e-06
-6.56560941615154e-07
3.1097324991931966e-07
-9.94295046516879e-07
6.70220245996718e-07
4.2958818685561965e-07
-3.560737794980903e-06
-1.363955678925405e-06
-6.109002390085868e-06
5.3254295732108364e-08
-2.8546320807302873e-08
-5.36800462968049e-08
-6.787867749897721e-08
-1.2552424995755158e-08
8.972461650577654e-08
-2.646725981725517e-09
4.438613532463774e-07
2.0850072744634717e-07
7.086375643417737e-08
2.6157110374771194e-07
-2.3199727285132772e-08
4.534941505052744e-08
5.176875015112223e-07
3.21460052939568e-07
5.950543911484836e-07
1.5341289974408782e-07
2.5477832931442852e-08
1.0306434840216732e-08
-3.595100435145657e-08
1.2082772121702205e-08
-4.761685001780126e-08
-1.5146164485719306e-08
-3.477943963703607e-08
-4.534134358054023e-08
-6.533312003684172e-09
-1.5031212689812544e-08
-3.0020712364465554e-08
-1.2850899832272399e-08
-5.926398681775028e-08
-4.764923708744997e-08
-1.991287568702673e-08
7.3324446160749724e-09
2.990997583162251e-08
-1.0146811229087799e-09
-3.459801732415469e-08
2.5705562635592465e-08
-2.7293987116800733e-08
-4.702092988036123e-09
-3.056715725041179e-09
-3.2344931219751466e-08
1.461764950463263e-08
3.5393762051032024e-08
-3.272313559242931e-08
8.734963581213415e-09
-1.067434610655454e-08
-2.0787634477360452e-08
2.030954453936609e-08
4.104525163125079e-08
1.8062039690736776e-08
-9.884898275808533e-09
-1.4107426868148384e-08
1.8357880724255841e-09
-2.862636662635135e-08
7.3561864987348816e-09
3.249755146397925e-09
-3.3635810794434044e-08
2.2425845977880028e-08
2.6280719116687873e-08
-1.263899996979884e-08
-1.1753788214718654e-08
-1.8234404522964692e-08
-1.2536423176148909e-08
3.6500742409705463e-08
2.7943525964084952e-08
-2.964556043891693e-09
-7.837072112850414e-10
6.840950757090118e-09
-8.222571531734552e-09
-5.8677523529019635e-09
6.452765489813359e-09
1.4986697151385057e-08
-6.83652968917062e-09
1.05421427296369e-08
-1.1911472268954762e-09
6.2972339901477026e-09
-1.1190369776298647e-08
-1.880369875241117e-08
6.78618386167837e-09
2.135328298009773e-08
5.036180568967769e-10
0.0
0.0
2.6867881590554036e-09
-7.544393980883755e-10
4.453654570185836e-09
-1.8573407440029157e-09
4.23800938557083e-09
2.2331484070655446e-09
-1.1350441112379218e-09
-4.857548863325046e-09
0.0
0.0
-1.681330256650496e-09
4.7358474945619024e-09
-2.195826905384506e-09
-7.178637850909172e-09
1.0322231792399028
0.9941539714184697
1.0312718870968038
1.0466397948444732
1.0456095347122543
1.0463397161242436
1.0216056037138952
1.034537882581413
1.0452911846879385
1.035230169431188
1.0468613280015038
1.0449090521208075
1.0230676193958446
1.010602412327545
1.0223618637864014
1.0358655156545007
1.0099806232160287
1.001634866646728
1.0458485049687651
1.0364275508915295
0.7200204252876307
0.5804018742760602
0.71852989057242
0.8393451084435275
0.9320436978096087
0.8374188976785414
1.0339471233742958
0.9987135636953515
0.9339613857418696
0.9972196304888414
0.8412866594127353
0.9358901396801914
1.0331085950565244
0.9957071321295172
1.0470205028368411
0.9301169838412825
0.16294810296990184
0.06449205648465706
0.16485332424177995
0.2898184046419191
0.43337184786923805
0.2910950188592167
0.7230718104400377
0.582455530864711
0.4330202408524979
0.5817595855761649
0.2884963383568887
0.43265196481075263
0.7215302481908974
0.5810776235236957
0.8432588551670545
0.4337044139876894
-0.05691507181281309
-0.0515350083833851
-0.056759991136029454
-0.044822838494741425
-0.006709280606165947
-0.04382599792315039
0.1589526650136703
0.058160138718101516
-0.008446421088289009
0.06032797945604843
-0.04581438141841255
-0.010215079005675497
0.16098253955278774
0.06243729748633125
0.28712627550111847
-0.005001794017578229
-0.004958218163876433
0.0029744973440219607
-0.005793937914486322
-0.018733090748449015
-0.035735196802802245
-0.019791720620217643
-0.057114775399364354
-0.04967975013108368
-0.03469980280100926
-0.05035025312416405
-0.017650742524012473
-0.033618185540150676
-0.05703437452241754
-0.05096784017594617
-0.04679901537709002
-0.03672590502138639
0.004094240300518699
0.002004652498673837
0.004348842766844431
0.006231237738059487
0.0066495245664942694
0.006384567721691961
-0.003294690817718018
0.004302116053077164
0.006720545295666965
0.0038823860374404794
0.006056039009678575
0.006762755037495163
-0.004124608074522688
0.003438795848525255
-0.016545213995007448
0.006551104827604292
-0.0007856326809691007
-0.0006005994290296548
-0.0008046593082891762
-0.0006708284091477883
0.00011706262967124613
-0.0006247288625290911
0.0035577978494670303
0.0013202674790657471
-1.5941631032527852e-05
0.0015453194791475216
-0.0007073775410674977
-0.0001384876221107641
0.0038302074081239617
0.0017737541318033157
0.005859023492978225
0.000258919914489457
6.59277089448838e-05
8.538977589967528e-05
5.9092894739351724e-05
-3.715171827608998e-05
-0.00025606770123339537
-6.106141003775594e-05
-0.0007290443246806629
-0.0004605945283621227
-0.00021651329051817274
-0.0005086846260925719
-1.5784971080165027e-05
-0.00017857645738154738
-0.0007601495708130361
-0.0005555896128389852
-0.0007341521366418027
-0.00029738446707952576
3.1611221037448053e-06
-5.6364288727779825e-06
5.89348159362745e-06
2.4942120084786566e-05
5.671025877217117e-05
3.022445585114276e-05
7.3639108034208e-05
7.255887144875663e-05
5.0139206787662835e-05
7.76219578003987e-05
2.0116926511136602e-05
4.373948388539744e-05
7.087814858157221e-05
8.200177420044662e-05
2.925627156383013e-06
6.317032643171499e-05
-1.9192980276327397e-06
-4.232087511990733e-07
-2.377877145432881e-06
-4.616224651616179e-06
-7.086915016033615e-06
-5.296497759679592e-06
-7.632450519709288e-07
-6.389584863381191e-06
-6.447407602737945e-06
-6.4199483584429775e-06
-3.901141714264296e-06
-5.805153847033426e-06
1.0152595720902278e-06
-6.054385968830478e-06
1.5661225639539047e-05
-7.6244274847586e-06
3.102728150752993e-07
1.5175031949944357e-07
3.8167243335688176e-07
4.972010573758334e-07
4.5078653816005144e-07
5.814568843767858e-07
-1.0323891925572742e-06
8.819916401883667e-08
4.796891970731087e-07
-6.464583066214024e-08
4.6898772072187187e-07
4.5093198156710895e-07
-1.4490704410877404e-06
-1.3674990152256275e-07
-3.344172329617816e-06
4.379459942824386e-07
-3.4366020087530186e-08
-1.2287332709140412e-08
-3.062774155791636e-08
-2.740181947654658e-08
1.18314751668257e-08
-3.578119644316853e-08
2.2757421643933697e-07
7.510722716917767e-08
1.2821425595908069e-09
9.038253997881628e-08
-2.2853908712147815e-08
-1.136267375363479e-08
2.4468464689355307e-07
1.3693522739925584e-07
3.623106694143225e-07
3.193907624825939e-08
-2.4627789119337095e-08
2.6301257712388568e-08
1.8855820957139474e-08
5.6371483740859266e-09
5.1555611123412e-09
-1.935026788276538e-08
-2.5269084382186675e-08
-4.698098115117698e-09
-1.7238713680502174e-08
-1.6033815540895047e-08
4.098289539235985e-09
4.175645796999837e-10
-2.3388522930200566e-08
-2.4427982078247517e-08
-2.6744166174180157e-08
-1.9196418298560942e-08
-2.8239422227028786e-08
3.4172906121795245e-08
1.4850067431750369e-08
1.7448079617107115e-08
3.349271153334542e-08
-3.0007017544108125e-08
-1.6050574381477172e-08
2.640536479833962e-08
-3.203088888730569e-08
-8.006550294250738e-09
-3.3457430026384656e-10
2.330790280971399e-08
2.5906148920164298e-08
-6.976658038913713e-09
-1.3423093356638925e-08
-2.1190878016206727e-08
-3.25015759899393e-09
1.286442733768547e-08
-7.602254787996757e-09
2.286250374684817e-08
1.7413475873393835e-08
-2.4708995954708065e-08
-3.4022801462917064e-08
8.086485700316e-09
-2.4275978404774855e-08
7.846192248728012e-09
-1.521955103430185e-08
2.5741758583635624e-08
3.775706630306585e-08
-2.5588637334499014e-08
-1.645940724181231e-08
-3.808124240793861e-09
0.0
0.0
-3.025324948868234e-09
3.2030140352001007e-09
-2.9443382717907622e-09
-2.006904890924177e-09
-1.1636849125025532e-08
-3.514756665819567e-09
-9.987268871101518e-10
8.997138305153058e-09
0.0
0.0
1.1093461951717437e-08
-1.3099306833217379e-08
2.2864356363135925e-09
7.934892164866668e-09
1.0199849631802307
1.0337968726921798
1.0208109103556406
1.0086507377698664
1.0008053018659047
1.009326887735373
0.9955257654692542
0.9963342669168818
1.0003724872603814
0.9965000298356977
1.0079603297489583
0.9999374593759264
0.9954306387599665
0.9960286467042903
0.9954761555664237
0.9966647929357769
0.996193085310475
0.9971353862721211
1.0012288457985463
0.9968230589569931
1.0355265584259874
1.0002011992138868
1.0347508178330496
1.047187024315695
1.043982615079966
1.0471276312182447
1.0182582113245056
1.0313253416498007
1.0434445883125867
1.0321883277877184
1.0472017966172276
1.0428579341661437
1.01913281807316
1.033012966669441
1.0072609180062195
1.0444713774291003
0.7262845821273681
0.5831708492290572
0.7246542406384062
0.8473374801799332
0.9398286266721119
0.8452729235354169
1.0370062217507758
1.0046955766203685
0.9418523237003144
1.0031884520474643
0.8494591544444033
0.9439194996661092
1.0362776839502692
1.0016911938356008
1.0471726037794171
0.9378432154424116
0.15468177095445626
0.05593035237921496
0.1568537916644502
0.28423100788782085
0.43186698292580444
0.28570532166527624
0.7297147481609872
0.5854704108654242
0.4314505292497387
0.5846747988404656
0.282699284744633
0.4310175016498616
0.7279691952087258
0.5839092494913802
0.8516452444109932
0.4322676165243587
-0.057145545655178105
-0.04895230505710292
-0.057153205730929205
-0.04874232651139662
-0.01384983982198739
-0.04777592223654889
0.15009701968409242
0.048829803295534595
-0.015717892889553893
0.05126905497500142
-0.0496965916691027
-0.01762111935057641
0.15243103146105186
0.05363424599373489