# vtk DataFile Version 2.0
Packing Fraction Fields
ASCII
DATASET UNSTRUCTURED_GRID
POINTS 4225 double
0.4375 0.875 0.0
0.46875 0.875 0.0
0.46875 0.90625 0.0
0.4375 0.90625 0.0
0.4375 0.9375 0.0
0.46875 0.9375 0.0
0.5 0.9375 0.0
0.5 0.90625 0.0
0.5 0.875 0.0
0.375 0.9375 0.0
0.375 0.90625 0.0
0.40625 0.90625 0.0
0.40625 0.9375 0.0
0.40625 0.875 0.0
0.375 0.875 0.0
0.4375 1.0 0.0
0.40625 1.0 0.0
0.40625 0.96875 0.0
0.4375 0.96875 0.0
0.375 0.96875 0.0
0.375 1.0 0.0
0.5 0.96875 0.0
0.46875 0.96875 0.0
0.46875 1.0 0.0
0.5 1.0 0.0
0.4375 0.75 0.0
0.46875 0.75 0.0
0.46875 0.78125 0.0
0.4375 0.78125 0.0
0.4375 0.8125 0.0
0.46875 0.8125 0.0
0.5 0.8125 0.0
0.5 0.78125 0.0
0.5 0.75 0.0
0.375 0.8125 0.0
0.375 0.78125 0.0
0.40625 0.78125 0.0
0.40625 0.8125 0.0
0.40625 0.75 0.0
0.375 0.75 0.0
0.40625 0.84375 0.0
0.4375 0.84375 0.0
0.375 0.84375 0.0
0.5 0.84375 0.0
0.46875 0.84375 0.0
0.4375 0.625 0.0
0.46875 0.625 0.0
0.46875 0.65625 0.0
0.4375 0.65625 0.0
0.4375 0.6875 0.0
0.46875 0.6875 0.0
0.5 0.6875 0.0
0.5 0.65625 0.0
0.5 0.625 0.0
0.375 0.6875 0.0
0.375 0.65625 0.0
0.40625 0.65625 0.0
0.40625 0.6875 0.0
0.40625 0.625 0.0
0.375 0.625 0.0
0.40625 0.71875 0.0
0.4375 0.71875 0.0
0.375 0.71875 0.0
0.5 0.71875 0.0
0.46875 0.71875 0.0
0.4375 0.5 0.0
0.46875 0.5 0.0
0.46875 0.53125 0.0
0.4375 0.53125 0.0
0.4375 0.5625 0.0
0.46875 0.5625 0.0
0.5 0.5625 0.0
0.5 0.53125 0.0
0.5 0.5 0.0
0.375 0.5625 0.0
0.375 0.53125 0.0
0.40625 0.53125 0.0
0.40625 0.5625 0.0
0.40625 0.5 0.0
0.375 0.5 0.0
0.40625 0.59375 0.0
0.4375 0.59375 0.0
0.375 0.59375 0.0
0.5 0.59375 0.0
0.46875 0.59375 0.0
0.4375 0.375 0.0
0.46875 0.375 0.0
0.46875 0.40625 0.0
0.4375 0.40625 0.0
0.4375 0.4375 0.0
0.46875 0.4375 0.0
0.5 0.4375 0.0
0.5 0.40625 0.0
0.5 0.375 0.0
0.375 0.4375 0.0
0.375 0.40625 0.0
0.40625 0.40625 0.0
0.40625 0.4375 0.0
0.40625 0.375 0.0
0.375 0.375 0.0
0.40625 0.46875 0.0
0.4375 0.46875 0.0
0.375 0.46875 0.0
0.5 0.46875 0.0
0.46875 0.46875 0.0
0.4375 0.25 0.0
0.46875 0.25 0.0
0.46875 0.28125 0.0
0.4375 0.28125 0.0
0.4375 0.3125 0.0
0.46875 0.3125 0.0
0.5 0.3125 0.0
0.5 0.28125 0.0
0.5 0.25 0.0
0.375 0.3125 0.0
0.375 0.28125 0.0
0.40625 0.28125 0.0
0.40625 0.3125 0.0
0.40625 0.25 0.0
0.375 0.25 0.0
0.40625 0.34375 0.0
0.4375 0.34375 0.0
0.375 0.34375 0.0
0.5 0.34375 0.0
0.46875 0.34375 0.0
0.4375 0.125 0.0
0.46875 0.125 0.0
0.46875 0.15625 0.0
0.4375 0.15625 0.0
0.4375 0.1875 0.0
0.46875 0.1875 0.0
0.5 0.1875 0.0
0.5 0.15625 0.0
0.5 0.125 0.0
0.375 0.1875 0.0
0.375 0.15625 0.0
0.40625 0.15625 0.0
0.40625 0.1875 0.0
0.40625 0.125 0.0
0.375 0.125 0.0
0.40625 0.21875 0.0
0.4375 0.21875 0.0
0.375 0.21875 0.0
0.5 0.21875 0.0
0.46875 0.21875 0.0
0.4375 0.0 0.0
0.46875 0.0 0.0
0.46875 0.03125 0.0
0.4375 0.03125 0.0
0.4375 0.0625 0.0
0.46875 0.0625 0.0
0.5 0.0625 0.0
0.5 0.03125 0.0
0.5 0.0 0.0
0.375 0.0625 0.0
0.375 0.03125 0.0
0.40625 0.03125 0.0
0.40625 0.0625 0.0
0.40625 0.0 0.0
0.375 0.0 0.0
0.40625 0.09375 0.0
0.4375 0.09375 0.0
0.375 0.09375 0.0
0.5 0.09375 0.0
0.46875 0.09375 0.0
0.4375 -0.125 0.0
0.46875 -0.125 0.0
0.46875 -0.09375 0.0
0.4375 -0.09375 0.0
0.4375 -0.0625 0.0
0.46875 -0.0625 0.0
0.5 -0.0625 0.0
0.5 -0.09375 0.0
0.5 -0.125 0.0
0.375 -0.0625 0.0
0.375 -0.09375 0.0
0.40625 -0.09375 0.0
0.40625 -0.0625 0.0
0.40625 -0.125 0.0
0.375 -0.125 0.0
0.40625 -0.03125 0.0
0.4375 -0.03125 0.0
0.375 -0.03125 0.0
0.5 -0.03125 0.0
0.46875 -0.03125 0.0
0.4375 -0.25 0.0
0.46875 -0.25 0.0
0.46875 -0.21875 0.0
0.4375 -0.21875 0.0
0.4375 -0.1875 0.0
0.46875 -0.1875 0.0
0.5 -0.1875 0.0
0.5 -0.21875 0.0
0.5 -0.25 0.0
0.375 -0.1875 0.0
0.375 -0.21875 0.0
0.40625 -0.21875 0.0
0.40625 -0.1875 0.0
0.40625 -0.25 0.0
0.375 -0.25 0.0
0.40625 -0.15625 0.0
0.4375 -0.15625 0.0
0.375 -0.15625 0.0
0.5 -0.15625 0.0
0.46875 -0.15625 0.0
0.4375 -0.375 0.0
0.46875 -0.375 0.0
0.46875 -0.34375 0.0
0.4375 -0.34375 0.0
0.4375 -0.3125 0.0
0.46875 -0.3125 0.0
0.5 -0.3125 0.0
0.5 -0.34375 0.0
0.5 -0.375 0.0
0.375 -0.3125 0.0
0.375 -0.34375 0.0
0.40625 -0.34375 0.0
0.40625 -0.3125 0.0
0.40625 -0.375 0.0
0.375 -0.375 0.0
0.40625 -0.28125 0.0
0.4375 -0.28125 0.0
0.375 -0.28125 0.0
0.5 -0.28125 0.0
0.46875 -0.28125 0.0
0.4375 -0.5 0.0
0.46875 -0.5 0.0
0.46875 -0.46875 0.0
0.4375 -0.46875 0.0
0.4375 -0.4375 0.0
0.46875 -0.4375 0.0
0.5 -0.4375 0.0
0.5 -0.46875 0.0
0.5 -0.5 0.0
0.375 -0.4375 0.0
0.375 -0.46875 0.0
0.40625 -0.46875 0.0
0.40625 -0.4375 0.0
0.40625 -0.5 0.0
0.375 -0.5 0.0
0.40625 -0.40625 0.0
0.4375 -0.40625 0.0
0.375 -0.40625 0.0
0.5 -0.40625 0.0
0.46875 -0.40625 0.0
0.4375 -0.625 0.0
0.46875 -0.625 0.0
0.46875 -0.59375 0.0
0.4375 -0.59375 0.0
0.4375 -0.5625 0.0
0.46875 -0.5625 0.0
0.5 -0.5625 0.0
0.5 -0.59375 0.0
0.5 -0.625 0.0
0.375 -0.5625 0.0
0.375 -0.59375 0.0
0.40625 -0.59375 0.0
0.40625 -0.5625 0.0
0.40625 -0.625 0.0
0.375 -0.625 0.0
0.40625 -0.53125 0.0
0.4375 -0.53125 0.0
0.375 -0.53125 0.0
0.5 -0.53125 0.0
0.46875 -0.53125 0.0
0.4375 -0.75 0.0
0.46875 -0.75 0.0
0.46875 -0.71875 0.0
0.4375 -0.71875 0.0
0.4375 -0.6875 0.0
0.46875 -0.6875 0.0
0.5 -0.6875 0.0
0.5 -0.71875 0.0
0.5 -0.75 0.0
0.375 -0.6875 0.0
0.375 -0.71875 0.0
0.40625 -0.71875 0.0
0.40625 -0.6875 0.0
0.40625 -0.75 0.0
0.375 -0.75 0.0
0.40625 -0.65625 0.0
0.4375 -0.65625 0.0
0.375 -0.65625 0.0
0.5 -0.65625 0.0
0.46875 -0.65625 0.0
0.4375 -0.875 0.0
0.46875 -0.875 0.0
0.46875 -0.84375 0.0
0.4375 -0.84375 0.0
0.4375 -0.8125 0.0
0.46875 -0.8125 0.0
0.5 -0.8125 0.0
0.5 -0.84375 0.0
0.5 -0.875 0.0
0.375 -0.8125 0.0
0.375 -0.84375 0.0
0.40625 -0.84375 0.0
0.40625 -0.8125 0.0
0.40625 -0.875 0.0
0.375 -0.875 0.0
0.40625 -0.78125 0.0
0.4375 -0.78125 0.0
0.375 -0.78125 0.0
0.5 -0.78125 0.0
0.46875 -0.78125 0.0
0.4375 -1.0 0.0
0.46875 -1.0 0.0
0.46875 -0.96875 0.0
0.4375 -0.96875 0.0
0.4375 -0.9375 0.0
0.46875 -0.9375 0.0
0.5 -0.9375 0.0
0.5 -0.96875 0.0
0.5 -1.0 0.0
0.375 -0.9375 0.0
0.375 -0.96875 0.0
0.40625 -0.96875 0.0
0.40625 -0.9375 0.0
0.40625 -1.0 0.0
0.375 -1.0 0.0
0.40625 -0.90625 0.0
0.4375 -0.90625 0.0
0.375 -0.90625 0.0
0.5 -0.90625 0.0
0.46875 -0.90625 0.0
0.3125 0.875 0.0
0.34375 0.875 0.0
0.34375 0.90625 0.0
0.3125 0.90625 0.0
0.3125 0.9375 0.0
0.34375 0.9375 0.0
0.25 0.9375 0.0
0.25 0.90625 0.0
0.28125 0.90625 0.0
0.28125 0.9375 0.0
0.28125 0.875 0.0
0.25 0.875 0.0
0.3125 1.0 0.0
0.28125 1.0 0.0
0.28125 0.96875 0.0
0.3125 0.96875 0.0
0.25 0.96875 0.0
0.25 1.0 0.0
0.34375 0.96875 0.0
0.34375 1.0 0.0
0.3125 0.75 0.0
0.34375 0.75 0.0
0.34375 0.78125 0.0
0.3125 0.78125 0.0
0.3125 0.8125 0.0
0.34375 0.8125 0.0
0.25 0.8125 0.0
0.25 0.78125 0.0
0.28125 0.78125 0.0
0.28125 0.8125 0.0
0.28125 0.75 0.0
0.25 0.75 0.0
0.28125 0.84375 0.0
0.3125 0.84375 0.0
0.25 0.84375 0.0
0.34375 0.84375 0.0
0.3125 0.625 0.0
0.34375 0.625 0.0
0.34375 0.65625 0.0
0.3125 0.65625 0.0
0.3125 0.6875 0.0
0.34375 0.6875 0.0
0.25 0.6875 0.0
0.25 0.65625 0.0
0.28125 0.65625 0.0
0.28125 0.6875 0.0
0.28125 0.625 0.0
0.25 0.625 0.0
0.28125 0.71875 0.0
0.3125 0.71875 0.0
0.25 0.71875 0.0
0.34375 0.71875 0.0
0.3125 0.5 0.0
0.34375 0.5 0.0
0.34375 0.53125 0.0
0.3125 0.53125 0.0
0.3125 0.5625 0.0
0.34375 0.5625 0.0
0.25 0.5625 0.0
0.25 0.53125 0.0
0.28125 0.53125 0.0
0.28125 0.5625 0.0
0.28125 0.5 0.0
0.25 0.5 0.0
0.28125 0.59375 0.0
0.3125 0.59375 0.0
0.25 0.59375 0.0
0.34375 0.59375 0.0
0.3125 0.375 0.0
0.34375 0.375 0.0
0.34375 0.40625 0.0
0.3125 0.40625 0.0
0.3125 0.4375 0.0
0.34375 0.4375 0.0
0.25 0.4375 0.0
0.25 0.40625 0.0
0.28125 0.40625 0.0
0.28125 0.4375 0.0
0.28125 0.375 0.0
0.25 0.375 0.0
0.28125 0.46875 0.0
0.3125 0.46875 0.0
0.25 0.46875 0.0
0.34375 0.46875 0.0
0.3125 0.25 0.0
0.34375 0.25 0.0
0.34375 0.28125 0.0
0.3125 0.28125 0.0
0.3125 0.3125 0.0
0.34375 0.3125 0.0
0.25 0.3125 0.0
0.25 0.28125 0.0
0.28125 0.28125 0.0
0.28125 0.3125 0.0
0.28125 0.25 0.0
0.25 0.25 0.0
0.28125 0.34375 0.0
0.3125 0.34375 0.0
0.25 0.34375 0.0
0.34375 0.34375 0.0
0.3125 0.125 0.0
0.34375 0.125 0.0
0.34375 0.15625 0.0
0.3125 0.15625 0.0
0.3125 0.1875 0.0
0.34375 0.1875 0.0
0.25 0.1875 0.0
0.25 0.15625 0.0
0.28125 0.15625 0.0
0.28125 0.1875 0.0
0.28125 0.125 0.0
0.25 0.125 0.0
0.28125 0.21875 0.0
0.3125 0.21875 0.0
0.25 0.21875 0.0
0.34375 0.21875 0.0
0.3125 0.0 0.0
0.34375 0.0 0.0
0.34375 0.03125 0.0
0.3125 0.03125 0.0
0.3125 0.0625 0.0
0.34375 0.0625 0.0
0.25 0.0625 0.0
0.25 0.03125 0.0
0.28125 0.03125 0.0
0.28125 0.0625 0.0
0.28125 0.0 0.0
0.25 0.0 0.0
0.28125 0.09375 0.0
0.3125 0.09375 0.0
0.25 0.09375 0.0
0.34375 0.09375 0.0
0.3125 -0.125 0.0
0.34375 -0.125 0.0
0.34375 -0.09375 0.0
0.3125 -0.09375 0.0
0.3125 -0.0625 0.0
0.34375 -0.0625 0.0
0.25 -0.0625 0.0
0.25 -0.09375 0.0
0.28125 -0.09375 0.0
0.28125 -0.0625 0.0
0.28125 -0.125 0.0
0.25 -0.125 0.0
0.28125 -0.03125 0.0
0.3125 -0.03125 0.0
0.25 -0.03125 0.0
0.34375 -0.03125 0.0
0.3125 -0.25 0.0
0.34375 -0.25 0.0
0.34375 -0.21875 0.0
0.3125 -0.21875 0.0
0.3125 -0.1875 0.0
0.34375 -0.1875 0.0
0.25 -0.1875 0.0
0.25 -0.21875 0.0
0.28125 -0.21875 0.0
0.28125 -0.1875 0.0
0.28125 -0.25 0.0
0.25 -0.25 0.0
0.28125 -0.15625 0.0
0.3125 -0.15625 0.0
0.25 -0.15625 0.0
0.34375 -0.15625 0.0
0.3125 -0.375 0.0
0.34375 -0.375 0.0
0.34375 -0.34375 0.0
0.3125 -0.34375 0.0
0.3125 -0.3125 0.0
0.34375 -0.3125 0.0
0.25 -0.3125 0.0
0.25 -0.34375 0.0
0.28125 -0.34375 0.0
0.28125 -0.3125 0.0
0.28125 -0.375 0.0
0.25 -0.375 0.0
0.28125 -0.28125 0.0
0.3125 -0.28125 0.0
0.25 -0.28125 0.0
0.34375 -0.28125 0.0
0.3125 -0.5 0.0
0.34375 -0.5 0.0
0.34375 -0.46875 0.0
0.3125 -0.46875 0.0
0.3125 -0.4375 0.0
0.34375 -0.4375 0.0
0.25 -0.4375 0.0
0.25 -0.46875 0.0
0.28125 -0.46875 0.0
0.28125 -0.4375 0.0
0.28125 -0.5 0.0
0.25 -0.5 0.0
0.28125 -0.40625 0.0
0.3125 -0.40625 0.0
0.25 -0.40625 0.0
0.34375 -0.40625 0.0
0.3125 -0.625 0.0
0.34375 -0.625 0.0
0.34375 -0.59375 0.0
0.3125 -0.59375 0.0
0.3125 -0.5625 0.0
0.34375 -0.5625 0.0
0.25 -0.5625 0.0
0.25 -0.59375 0.0
0.28125 -0.59375 0.0
0.28125 -0.5625 0.0
0.28125 -0.625 0.0
0.25 -0.625 0.0
0.28125 -0.53125 0.0
0.3125 -0.53125 0.0
0.25 -0.53125 0.0
0.34375 -0.53125 0.0
0.3125 -0.75 0.0
0.34375 -0.75 0.0
0.34375 -0.71875 0.0
0.3125 -0.71875 0.0
0.3125 -0.6875 0.0
[...]
POINT_DATA 4225
SCALARS Radiance double
LOOKUP_TABLE default
0.020413444437117238
-0.04909579625576174
0.022116052856627245
0.17021343238428052
0.38422809972994465
0.17073414577611243
0.02259347642082586
-0.04804719840708376
-0.05667237020518314
0.8346704373891775
0.623727750260818
0.38423701115348646
0.6228836326936779
0.1686633541008232
0.38369771567970956
0.8247832636914325
0.9702154752247285
0.834578311113366
0.6246990913228784
0.9782256371239636
1.0406154020323435
0.17430631263922397
0.38765487226942186
0.6170023784320103
0.38540302252887676
-0.004601485701919014
0.00789855866704289
-0.005342824354409253
-0.031000893902533858
-0.05607758865215645
-0.03182628642446186
-0.006077854129501214
0.007618847913888545
0.008203037223185166
0.017376213263827683
-0.051194699890077966
-0.05578860986970423
-0.05048019388663236
-0.03014632437836895
-0.05546898704979878
0.01890198553605853
-0.04977487520955745
0.16713027471719213
-0.03261173563539216
-0.056343505964947825
-0.0011439539598503382
-0.0016853114160661241
-0.0010076949336886118
0.0026091048271303556
0.00791032919670899
0.0028761130303290735
-0.0008651049710599758
-0.0017024863714438408
-0.0007260142531910699
-0.0031074170062877723
0.008644829048761153
0.0077379212178145295
0.00841174249894381
0.0023369285392851134
0.007548379254032369
-0.003856514655319557
0.008162423704836918
-0.02926557289739338
0.0031379590353414377
0.008065008635568076
0.0003391450735387397
9.087382545078734e-05
0.000349774717097202
0.00027168716058724343
-0.000570076235064446
0.0002322558990335205
0.0003577214918478011
0.00011294417234841353
-7.106236476822805e-05
-0.0013926955440236068
-0.0015835500369760541
-0.0004885900327884616
-0.0016258427434931734
0.0003070908047592451
-0.00040690516678169023
-0.0012726020458464903
-0.001660221365239298
0.002061586312568133
0.00019031434895159645
-0.0006492379986789566
7.067320279269158e-06
2.2300417027129348e-05
1.4522468590673958e-06
-5.889255866196104e-05
-8.638072993861863e-05
-6.457659926430306e-05
-3.820179678251249e-06
2.2311276727082367e-05
8.89553833860859e-06
0.0003073293633715201
2.3569529788215404e-05
-9.118068452940526e-05
4.5638736038973035e-05
-5.189726776767726e-05
-9.486285320506017e-05
0.0003243164741294298
6.829947073312185e-05
0.0003385452752011264
-6.977672681988344e-05
-7.900481170051087e-05
-3.2323496637748537e-06
9.606231516022916e-07
-3.7912243573618003e-06
-6.080112067022367e-06
4.791165284188924e-06
-5.4233398376041545e-06
-4.23921587624023e-06
4.652095332473982e-07
1.38987198898289e-06
1.6243929620348968e-05
2.021787760511608e-05
2.4621259381495445e-06
2.12994272336916e-05
-6.417509380464911e-06
5.035691691749445e-07
1.1743738522061203e-05
2.2402784353954128e-05
-4.456575584154987e-05
-4.701082112482138e-06
6.89111744865959e-06
-4.507046397983503e-07
-1.0768118636422823e-07
-4.7395370490730455e-07
-2.228137447004428e-07
1.2018332945474865e-06
6.238634264871989e-08
-5.060506402877384e-07
-8.336017168187416e-08
2.3709637795504874e-07
-1.8284372732458332e-06
1.7111630880905757e-06
1.1599847096728116e-06
1.7641715895753782e-06
-3.484211498383446e-07
8.280532983725507e-07
-2.268799875297123e-06
1.1438958675611861e-06
-6.639715152209565e-06
1.551671178086602e-08
1.5851640791736033e-06
7.47125175138684e-08
-9.894056896072415e-08
-2.004727682006643e-07
2.0209022230694784e-07
3.2853742922097776e-07
-1.65243787724557e-07
1.4202799567952227e-07
8.389707601638324e-08
7.661612133168878e-08
-2.7641646110335613e-07
2.795191511843978e-07
-4.822828344568356e-08
-4.519034517784468e-08
-1.7208929823614087e-07
2.9391517544168813e-07
-4.3630695384224645e-07
8.303165566382096e-08
-4.7366412332449625e-07
2.3151622408787454e-07
1.4551551602260539e-08
7.221945010904055e-08
-5.538842473531606e-08
-9.37692545945538e-08
1.2808301114062678e-07
1.46857699295972e-07
-1.1800662708284922e-07
8.793004345910331e-08
4.7283001843406076e-08
5.4931467687425765e-08
7.670980354622365e-08
1.6542608476971615e-07
-1.3564222494159876e-07
-1.2092110502868923e-07
-1.1513007785168524e-07
1.5736666484718267e-07
-1.5267198579035626e-07
9.278853920093813e-08
8.926898505672977e-08
9.893537844965686e-08
-8.067499256867722e-08
1.1388526555556952e-07
-8.061868641529945e-08
-1.3489608668300095e-07
1.5590241803405845e-07
1.31612868820009e-07
-1.4531322123822966e-07
1.4242394073600617e-07
9.796967906118434e-08
5.520368884409184e-08
8.223261199787809e-08
1.4040394122549549e-07
-1.5526052180098708e-07
-1.0505813828687334e-07
-1.4563935448661546e-07
1.6294214947512907e-07
-7.946456527702037e-08
7.393612597361811e-08
8.718804309583574e-08
1.163255331891336e-07
-8.90684056197122e-08
1.3979633383932845e-07
-1.0203571377613861e-07
-1.3451336288623858e-07
1.4189931888262716e-07
9.680889416935115e-08
-1.0961878404586809e-07
1.1182800685797556e-07
1.0455517771997933e-07
5.549191775276969e-08
8.377538667644797e-08
1.0952652573889389e-07
-1.3024280112234605e-07
-8.493029194414546e-08
-1.5889563647609819e-07
1.558389027272396e-07
-9.417451550954606e-08
7.478781319510035e-08
1.1988879775517162e-07
7.309400352394421e-08
-6.843964286768128e-08
1.3574149185739897e-07
-1.3530018990183746e-07
-8.942719957046386e-08
7.85052290116925e-08
5.4106064599625306e-08
-4.519837682463576e-08
4.606901149109958e-08
9.37588455037111e-08
1.164924225550455e-07
1.0192175244672931e-07
7.02971992569901e-08
-7.002833583913023e-08
-7.451293285597695e-08
-1.219438417855967e-07
1.0210765739728032e-07
-1.2659803227343096e-07
8.927722308508213e-08
1.5287415606565565e-07
2.4620245819886077e-08
-5.199484709008526e-08
8.447799663172465e-09
-3.69686534741725e-10
-2.350981580060602e-08
5.893955997333423e-08
1.2784601802825244e-07
-8.315179851532218e-08
3.955640013332842e-08
-1.2492627441465304e-09
1.378917731596543e-09
1.8511496596751444e-07
1.3938951350799405e-07
-1.0017837460549922e-07
-1.6433525830300227e-07
-2.8313525981554785e-08
5.830780137507351e-08
-1.7204432855036747e-07
1.621540221036513e-07
1.63369027720462e-07
9.14032352865064e-08
-1.3340184356059563e-07
2.2729070398209873e-07
-2.133853151040222e-07
-1.8311604203629108e-07
1.7335675430842046e-07
9.288227984862617e-08
-1.1703445718831327e-07
1.2791956301810755e-07
1.7518180872253404e-07
1.8112818464394225e-07
2.8084710766338246e-08
1.0588908943265888e-07
-1.4621331357973522e-07
-6.067136991853393e-08
-2.2000602987676843e-07
1.9178245669337932e-07
-8.121906996196503e-09
2.1183435927369934e-08
5.992986825041194e-09
5.621673817104026e-08
-3.958400101394532e-08
9.444756341623473e-09
4.0058648227710165e-08
-1.0369636134950291e-08
6.807440214503091e-08
1.5382590542681518e-07
-8.819978016391044e-08
1.957625519244291e-08
-4.171676946852011e-08
-8.191985673328965e-08
2.43161554726688e-07
1.7572095822118844e-07
-1.2557876235208468e-07
-2.0809632528000498e-07
-6.20167962467962e-08
1.123539043750623e-07
-2.5187013012479674e-07
2.273998668760331e-07
2.5154460041912424e-07
1.213334241810207e-07
-1.8186745016192352e-07
0.0
0.0
2.539390797749825e-08
-3.562061702962851e-08
-6.617594528474464e-08
6.099158393027464e-08
-4.0001218611586295e-08
-1.6055985029016073e-08
0.0
-2.6697483996164744e-08
-4.010008024065684e-08
4.173021665826537e-08
5.409895570212434e-08
0.0
0.0
1.8434607570456765e-08
-6.50871157559747e-08
3.3525693549205764e-08
-1.1823964799274146e-07
1.000267538874023e-07
0.8376781983232477
0.6245090605766777
0.8360705548472777
0.9806148677887397
1.045518583840611
0.9793675068124147
1.0276272873510532
1.0504635254530996
1.0459933288151078
1.0508473815033585
0.9820832565926971
1.0465608131263724
1.0301515985572234
1.0065314890804518
1.0281870061751917
1.0507095353496518
1.004666032061467
0.9940469544582782
1.0445377501198894
1.0506942593087338
0.014213076902759627
-0.05190587528030828
0.015811087455180256
0.16399722922797377
0.3824888499486592
0.16558583361001203
0.8409206939460149
0.6267678832246502
0.38186992179421925
0.6259890602505259
0.16236371908965025
0.3812337062003813
0.8392810039785772
0.6252357118091596
0.9835721824633479
0.3830917313998675
-0.001594873598782713
0.00886207844918338
-0.0023536237990964617
-0.027418283267310363
-0.05474053676340278
-0.028357333756118454
0.010921089004473462
-0.05401340455351128
-0.05432530755400914
-0.053316084835059036
-0.026449807135470235
-0.05387676552832365
0.012583077677208964
-0.0526141407933138
0.1606873237085596
-0.05512059950581615
-0.0016081759392764096
-0.0015331449408355622
-0.0015056439232940633
0.0014988147943462498
0.0071145698123741
0.0017820653909454817
-7.428742104648854e-05
0.009393627190712094
0.00686917767325749
0.00923751304871905
0.00121412623977827
0.006603908277256399
-0.0008357280532642267
0.00906023552573434
-0.02545115626414881
0.007341758683550232
0.0002641113574433754
1.8710077027603346e-06
0.00028730721951215367
0.00038939753625611497
-0.00023970921751585746
0.00036645600086587267
-0.001781419680485028
-0.0013276948653705813
-0.00015617114861944448
-0.0014050336415109238
0.00040793887946137064
-7.331996364224729e-05
-0.0017005276931185776
-0.0014732028331789786
0.0009277692951528641
-0.00032348542145679436
2.316577227625967e-05
1.8307366176397902e-05
1.9922333646281583e-05
-2.8309746750756262e-05
-9.672747495921002e-05
-3.6793595838941214e-05
0.00021044373039981446
-5.727388901693548e-05
-9.534971184993773e-05
-3.898084841941924e-05
-1.99815771983712e-05
-9.149760818319363e-05
0.00023872383510631628
-1.9028453832676116e-05
0.00042074173745229967
-9.684170108896143e-05
-2.000681700515509e-07
2.0447108841532564e-06
-7.157844510344306e-07
-6.254132870574811e-06
-3.468838610656471e-06
-6.34740938627796e-06
2.7157132069591396e-05
1.0747290877166321e-05
-4.9426910376041925e-06
1.3693048390026136e-05
-5.4762484453323245e-06
-6.540078577797984e-06
2.5438143859636212e-05
1.6244950460429134e-05
-1.1043450962923536e-05
-1.5875299699615923e-06
-1.5022527195013474e-08
2.0942254280120623e-10
-3.566897615835168e-07
-5.707972835494888e-07
2.8415602117377473e-07
-5.831792785409745e-07
1.269467956395405e-06
1.7107433812780838e-06
5.438951927935116e-08
1.959587043112283e-06
-6.989317175806577e-07
-2.2067197982541855e-07
6.75465132936937e-07
1.9369596713153455e-06
-4.876238678543563e-06
6.188226379500371e-07
1.3778288427894366e-07
-1.448881660474567e-07
-1.6479660217456886e-07
4.5691269388133954e-08
1.5875451329477477e-07
-1.5347615607350835e-07
1.7121296413842404e-07
2.7364768552466643e-07
-5.988871373318889e-08
8.43234233777123e-08
-1.8357872836566915e-07
7.272175344336421e-08
-2.0120781643661537e-07
3.418092304445287e-07
-4.792346037918537e-07
-4.495908156387211e-08
1.324858732901183e-07
-1.551882273796845e-07
-1.1253224937871973e-07
7.745497224131718e-08
9.644309086792977e-08
-8.675151644235578e-08
1.392271849365852e-07
1.0400047278355352e-07
-7.690165434723808e-08
-9.388959971535445e-08
-1.0867241383190607e-07
7.289609280502538e-08
-1.5607786844034225e-07
1.6795622093046302e-07
7.282523528604673e-08
-1.1215905584056006e-07
1.0952581015719534e-07
-1.355484205909676e-07
-9.078092286140927e-08
8.297219142743309e-08
1.1425717180384885e-07
-9.627106650815799e-08
1.321488117428112e-07
1.0112181493668618e-07
-8.943131176301574e-08
-1.2695791438475918e-07
-8.865961810185433e-08
7.821834637548105e-08
-1.4107182578146686e-07
1.5544981448448913e-07
1.1001701761462599e-07
-1.4363269182899998e-07
7.590505536447471e-08
-8.492498106344723e-08
-8.016980320420337e-08
9.529578631962537e-08
1.4150738737124676e-07
-1.273307732667399e-07
1.25984849427286e-07
1.1236666794094516e-07
-1.0829774426684757e-07
-1.402891465340923e-07
-7.518168636539841e-08
7.869707547798566e-08
-1.2516979500879082e-07
1.4947950656090384e-07
1.0010736951441592e-07
-1.6083249910466178e-07
1.25587669528666e-07
-9.305106219813556e-08
-1.6870816532595267e-07
1.8322043180245265e-07
1.7328736836138843e-07
-1.8725815865311962e-07
1.2454647260658364e-07
1.7052092869580045e-07
-1.8255513162647905e-07
-1.498381725178073e-07
-1.5011002066260024e-07
1.6399639820385478e-07
-9.3437014191889e-08
1.159707391677899e-07
7.847291008294984e-08
-1.4186074545534705e-07
9.186113988194847e-08
-1.4662426446742664e-07
-5.977366598973737e-08
1.6609136216699407e-08
-9.254352458210044e-09
-2.9222830266431687e-09
9.661951389854304e-09
-3.224829635790067e-08
1.5768746577797985e-08
6.4837956165108176e-09
-3.668135932425517e-08
-9.905750016310337e-09
-6.68317166207541e-08
3.871263859000401e-08
9.572400027799369e-08
-1.684018576376023e-08
1.8354560072963783e-07
-1.546929020074936e-07
-2.1116868141618608e-07
2.2608533663015456e-07
2.3729343755982562e-07
-2.5346395740554053e-07
1.4127242096607388e-07
1.8752514475849746e-07
-2.1774892507356097e-07
-1.975318513821235e-07
-1.9480328091501836e-07
1.8685182091947088e-07
-1.2091190064133073e-07
1.8019589144757698e-07
5.8328877897088647e-08
-2.263062738658699e-07
0.0
0.0
2.9121900370033174e-08
-9.430359727202678e-09
5.3143616147985734e-08
-1.1266383966164455e-08
1.2000072729260608e-07
4.388845992090669e-08
-1.6289640518783116e-08
-9.160727496284845e-08
0.0
0.0
-1.5326412228141908e-07
1.2556196176060204e-07
1.6342363279919624e-07
-8.378304269958121e-08
1.0259724079591408
1.050050909493475
1.0268322976478828
1.0033785547779077
0.9930065006541245
1.0040073048253906
0.9978961446032816
0.9935606987991262
0.992830468859277
0.9933928123603685
1.0027194739559506
0.992667668925171
0.9971833252055589
1.000545409120741
0.9976735824947653
0.9933041008907282
1.0008111972608316
1.001322895418535
0.9933059439685501
0.9930853195548408
0.8443427063908371
0.6275743829009967
0.8426071809706986
0.9866206743516013
1.0476978462220188
0.9850816520982247
1.0241923741107355
1.048668261427123
1.0482518088299282
1.0491621885626141
0.9881875252006046
1.048791425839994
1.025093229145857
1.0496211210271644
1.0020592523626886
1.0471344153066284
0.007486119379883779
-0.05470521478913319
0.009221769550113905
0.15718711408170627
0.3799067959680632
0.1589628023717854
0.8479599670813942
0.6301562663218282
0.3792123214586714
0.6292667338730771
0.1553585762412044
0.37849521171363854
0.8461254184659249
0.6284070393368261
0.9897819911055693
0.3805809548150478
0.0014475621017549516
0.009525877910565254
0.0006871417326787013
-0.02335688994115835
-0.05286337632798417
-0.02442019729413963
0.0038970545454745298
-0.05672947212178283
-0.05229409259335651
-0.056064966158514425
-0.022258919617089215
-0.05167841991092059
0.005711628171829614
-0.05538918056080087
0.15347294589451477
-0.05338993294941977
-0.0019050262981199068
-0.0012419560976352358
-0.0018496776109919138
0.0003563078615117751
0.00601377708274046
0.0006416586423129132
0.002960030972311103
0.009764202701200339
0.005687811912308092
0.009713541179173429
7.320519533020953e-05
0.005341349868852406
0.0022060708916252373
0.009633475470281894
-0.021126142484803927
0.00631872593673313
0.00014828714525334541
-7.407713671850345e-05
0.00018016414219732755
0.0004298927492285289
8.659255988652735e-05
0.0004282246863600523
-0.001971099039131452
-0.0009359664776184187
0.00016227058341791535
-0.0010455865443856863
0.00042514186510680843
0.0002337946665178631
-0.0019455960417043105
-0.001148049272642166
-0.00020609543700085081
7.847158036609703e-06
2.753550450067643e-05
7.817411195560477e-06
2.7722680307011778e-05
5.697539104787239e-06
-7.898895279502941e-05
-2.7828870786000165e-06
8.050277362576734e-05
-0.00010996497455057877
-7.043198302507415e-05
-0.00010076506411882691
1.3148567525682882e-05
-5.9912178006465814e-05
0.00011461670012305479
-8.847324715944625e-05
0.0004145850689331109
-8.63603845797781e-05
2.2458083427257515e-06
1.5050348932412462e-06
1.8559644180762565e-06
-2.804226324047134e-06
-8.146731877331637e-06
-3.863195114545815e-06
2.425748633731975e-05
-1.7997177816057053e-06
-8.355156004492867e-06
1.3388549362674473e-06
-1.652612349007911e-06
-8.149290738391525e-06
2.6373560936852384e-05
4.4336931422542915e-06
2.0171165342938743e-05
-7.358831958645048e-06
2.6928295366925535e-07
9.876855893332108e-08
3.8851136492766154e-08
-3.008563326452561e-07
-5.6976799892738e-07
-6.221578521053583e-07
2.6173212023566813e-06
3.8916606365544653e-07
-8.609933134291255e-07
6.990434280913908e-07
-3.3236721475187754e-07
-7.459847404760515e-07
2.519901033901344e-06
1.1503730783251097e-06
-4.605615862819456e-07
-5.113320267520814e-07
1.0096164624308034e-07
-5.460921250615405e-08
-7.940131353724881e-08
7.271973289270746e-08
3.9927680032261674e-08
-1.7626121637243907e-07
3.301451959656082e-07
1.1151588046638912e-07
-1.8636299200438663e-07
-7.280712391196831e-09
-9.937172692115355e-08
5.002712010533248e-09
1.9216633223102574e-07
1.986761134045998e-07
-5.075235020932618e-08
-1.4364809412209314e-07
8.97581246028842e-08
-8.015808307881317e-08
-1.0398900965462176e-07
1.0290331504260704e-07
8.580990605291807e-08
-1.208010161652086e-07
9.130904870251166e-08
7.199804829519134e-08
-1.0288244274676269e-07
-7.348867495232025e-08
-8.926376845165208e-08
7.798697441961619e-08
-3.403863118723187e-08
7.846440292273122e-08
7.291355144416685e-08
-9.633052677072383e-08
7.898508941338418e-08
-8.13641318300658e-08
-1.0621614538538326e-07
9.450436436106495e-08
8.672220608058022e-08
-1.0496369686137347e-07
7.950109164939716e-08
7.199531929568521e-08
-8.178540341126579e-08
-7.940267149794069e-08
-7.100021633738462e-08
6.251561888612295e-08
-7.613201042502056e-08
7.628590201697162e-08
8.569800699440098e-08
-8.380713574141195e-08
1.6585445203477612e-07
-1.6819499322664228e-07
-1.5309240528035255e-07
1.3546383313886473e-07
8.697730961308592e-08
-1.0291592956325333e-07
6.311459688944683e-08
1.0509395058842077e-07
-1.1972437904081213e-07
-7.50971021037524e-08
-1.6023996484253265e-07
1.5288000780300534e-07
-5.991035012733135e-08
6.521843987836808e-08
5.236240926613703e-08
-7.036226064757413e-08
-5.290758240457499e-08
4.0982923928419554e-08
3.124061982031253e-08
-1.4339171391456527e-08
6.615000355488962e-08
-3.5349002106703554e-08
1.2870604432938794e-07
5.146109782337725e-08
-1.4776449901615278e-08
-9.824235382755565e-08
4.5548602761535895e-08
-2.1743039787476877e-08
-1.569706151561226e-07
1.4164028266790934e-07
1.6764249521988627e-07
-1.2125541731074903e-07
1.226073825660736e-07
-1.61245277777143e-07
-1.4080461807420523e-07
8.588374211440942e-08
1.9299932045720323e-08
-7.836502188941739e-08
-5.4526508301727275e-08
-1.2065816229656028e-08
-3.2124363571494834e-08
2.694461443982133e-08
-7.770938258497062e-08
3.399107004851975e-08
5.984339799184007e-08
-3.855114690016839e-08
-6.033592381618956e-08
-2.459395958441132e-09
0.0
0.0
-6.863981966703203e-08
8.626892486479849e-08
1.306672350629511e-07
-1.3362093650256546e-07
8.370919864685474e-08
9.067604567355302e-08
-9.389811359216857e-08
-1.1259265831538026e-07
0.0
0.0
-9.759198607285396e-08
1.317946704228661e-07
5.943539088810064e-08
-1.5543900008004413e-07
0.9983556267351369
0.9937534598244323
0.9981219240091168
1.0010370398946735
1.0012967794403498
1.0009399007806457
0.9997571809525743
1.0003474730905682
1.001270032673869
1.000403762466922
1.001122286365827
1.0012291155841246
0.9998700404955737
0.9997610527766151
0.999803623044122
1.0004666259084751
0.999778006962101
0.9999874251968145
1.0013040505016146
1.0005870200786233
1.0223106883053739
1.0481366587098193
1.0232643338411724
1.000741035650649
0.992387851760763
1.001399584706645
0.9988247554352672
0.9944134443533664
0.9922752495816132
0.99417937511904
1.0000859767993238
0.992183397144693
0.9985895727509259
0.9939597563091245
1.0011978252768838
0.992520022278701
0.8517926112359416
0.631076208277561
0.8498478575754879
0.9930588118428817
1.0498264582486843
0.9914058751757421
1.0203224467362317
1.0462990748679089
1.0503175730050758
1.046954087910436
0.9947431556026547
1.0507891161029899
1.0213299463206031
1.047566286039146
0.9994352301884588
1.0493172977139142
0.00014246501697659397
-0.05738174498412368
0.0020415646470489986
0.1495211230575474
0.3769897865891885
0.1515286068071901
0.855867403003117
0.6340477473650897
0.37619856720967004
0.6330198294783104
0.14744700951136727
0.37537988545972983
0.8537981589442567
0.6320302534588486
0.9964591218887429
0.3777545789491303
0.004447157363915162
0.00978325199520005
0.0037079500468423367
-0.01875165405619838
-0.050297092694779694
-0.019957472359373615