# vtk DataFile Version 2.0
Packing Fraction Fields
ASCII
DATASET UNSTRUCTURED_GRID
POINTS 289 double
-0.875 -0.875 0.0
-1.0 -0.875 0.0
-1.0 -1.0 0.0
-0.875 -1.0 0.0
-0.875 -0.75 0.0
-1.0 -0.75 0.0
-0.875 -0.625 0.0
-1.0 -0.625 0.0
-0.875 -0.5 0.0
-1.0 -0.5 0.0
-0.875 -0.375 0.0
-1.0 -0.375 0.0
-0.875 -0.25 0.0
-1.0 -0.25 0.0
-0.875 -0.125 0.0
-1.0 -0.125 0.0
-0.875 0.0 0.0
-1.0 0.0 0.0
-0.875 0.125 0.0
-1.0 0.125 0.0
-0.875 0.25 0.0
-1.0 0.25 0.0
-0.875 0.375 0.0
-1.0 0.375 0.0
-0.875 0.5 0.0
-1.0 0.5 0.0
-0.875 0.625 0.0
-1.0 0.625 0.0
-0.875 0.75 0.0
-1.0 0.75 0.0
-0.875 0.875 0.0
-1.0 0.875 0.0
-0.875 1.0 0.0
-1.0 1.0 0.0
-0.75 -0.875 0.0
-0.75 -1.0 0.0
-0.75 -0.75 0.0
-0.75 -0.625 0.0
-0.75 -0.5 0.0
-0.75 -0.375 0.0
-0.75 -0.25 0.0
-0.75 -0.125 0.0
-0.75 0.0 0.0
-0.75 0.125 0.0
-0.75 0.25 0.0
-0.75 0.375 0.0
-0.75 0.5 0.0
-0.75 0.625 0.0
-0.75 0.75 0.0
-0.75 0.875 0.0
-0.75 1.0 0.0
-0.625 -0.875 0.0
-0.625 -1.0 0.0
-0.625 -0.75 0.0
-0.625 -0.625 0.0
-0.625 -0.5 0.0
-0.625 -0.375 0.0
-0.625 -0.25 0.0
-0.625 -0.125 0.0
-0.625 0.0 0.0
-0.625 0.125 0.0
-0.625 0.25 0.0
-0.625 0.375 0.0
-0.625 0.5 0.0
-0.625 0.625 0.0
-0.625 0.75 0.0
-0.625 0.875 0.0
-0.625 1.0 0.0
-0.5 -0.875 0.0
-0.5 -1.0 0.0
-0.5 -0.75 0.0
-0.5 -0.625 0.0
-0.5 -0.5 0.0
-0.5 -0.375 0.0
-0.5 -0.25 0.0
-0.5 -0.125 0.0
-0.5 0.0 0.0
-0.5 0.125 0.0
-0.5 0.25 0.0
-0.5 0.375 0.0
-0.5 0.5 0.0
-0.5 0.625 0.0
-0.5 0.75 0.0
-0.5 0.875 0.0
-0.5 1.0 0.0
-0.375 -0.875 0.0
-0.375 -1.0 0.0
-0.375 -0.75 0.0
-0.375 -0.625 0.0
-0.375 -0.5 0.0
-0.375 -0.375 0.0
-0.375 -0.25 0.0
-0.375 -0.125 0.0
-0.375 0.0 0.0
-0.375 0.125 0.0
-0.375 0.25 0.0
-0.375 0.375 0.0
-0.375 0.5 0.0
-0.375 0.625 0.0
-0.375 0.75 0.0
-0.375 0.875 0.0
-0.375 1.0 0.0
-0.24999999999999997 -0.875 0.0
-0.25 -1.0 0.0
-0.24999999999999997 -0.75 0.0
-0.24999999999999997 -0.625 0.0
-0.24999999999999997 -0.5 0.0
-0.24999999999999997 -0.375 0.0
-0.24999999999999997 -0.25 0.0
-0.24999999999999997 -0.125 0.0
-0.24999999999999997 0.0 0.0
-0.24999999999999997 0.125 0.0
-0.24999999999999997 0.25 0.0
-0.24999999999999997 0.375 0.0
-0.24999999999999997 0.5 0.0
-0.24999999999999997 0.625 0.0
-0.24999999999999997 0.75 0.0
-0.24999999999999997 0.875 0.0
-0.25 1.0 0.0
-0.12500000000000003 -0.875 0.0
-0.125 -1.0 0.0
-0.12500000000000003 -0.75 0.0
-0.12500000000000003 -0.625 0.0
-0.12500000000000003 -0.5 0.0
-0.12499999999999999 -0.375 0.0
-0.12499999999999999 -0.25 0.0
-0.12499999999999999 -0.125 0.0
-0.12499999999999999 0.0 0.0
-0.12499999999999999 0.125 0.0
-0.12499999999999999 0.25 0.0
-0.12499999999999999 0.375 0.0
-0.12499999999999999 0.5 0.0
-0.12499999999999999 0.625 0.0
-0.12499999999999999 0.75 0.0
-0.12499999999999999 0.875 0.0
-0.125 1.0 0.0
1.5139404881252134e-17 -0.875 0.0
0.0 -1.0 0.0
1.5139404881252134e-17 -0.75 0.0
1.5139404881252134e-17 -0.625 0.0
1.5139404881252134e-17 -0.5 0.0
1.5139404881252134e-17 -0.375 0.0
1.5139404881252134e-17 -0.25 0.0
1.5139404881252134e-17 -0.125 0.0
-1.261617073437678e-17 0.0 0.0
1.5139404881252134e-17 0.125 0.0
1.5139404881252134e-17 0.25 0.0
1.5139404881252134e-17 0.375 0.0
1.5139404881252134e-17 0.5 0.0
1.5139404881252134e-17 0.625 0.0
1.5139404881252134e-17 0.75 0.0
1.5139404881252134e-17 0.875 0.0
0.0 1.0 0.0
0.12500000000000003 -0.875 0.0
0.125 -1.0 0.0
0.12500000000000003 -0.75 0.0
0.12500000000000003 -0.625 0.0
0.12500000000000003 -0.5 0.0
0.12500000000000003 -0.375 0.0
0.12500000000000003 -0.25 0.0
0.12500000000000003 -0.125 0.0
0.12500000000000003 0.0 0.0
0.12500000000000003 0.125 0.0
0.12500000000000003 0.25 0.0
0.12500000000000003 0.375 0.0
0.12500000000000003 0.5 0.0
0.12500000000000003 0.625 0.0
0.12500000000000003 0.75 0.0
0.12500000000000003 0.875 0.0
0.125 1.0 0.0
0.25 -0.875 0.0
0.25 -1.0 0.0
0.25 -0.75 0.0
0.25 -0.625 0.0
0.25 -0.5 0.0
0.25 -0.375 0.0
0.25 -0.25 0.0
0.25 -0.125 0.0
0.25 0.0 0.0
0.25 0.125 0.0
0.25 0.25 0.0
0.25 0.375 0.0
0.25 0.5 0.0
0.25 0.625 0.0
0.25 0.75 0.0
0.25 0.875 0.0
0.25 1.0 0.0
0.375 -0.875 0.0
0.375 -1.0 0.0
0.375 -0.75 0.0
0.375 -0.625 0.0
0.375 -0.5 0.0
0.375 -0.375 0.0
0.375 -0.25 0.0
0.375 -0.125 0.0
0.375 0.0 0.0
0.375 0.125 0.0
0.375 0.25 0.0
0.375 0.375 0.0
0.375 0.5 0.0
0.375 0.625 0.0
0.375 0.75 0.0
0.375 0.875 0.0
0.375 1.0 0.0
0.5 -0.875 0.0
0.5 -1.0 0.0
0.5 -0.75 0.0
0.5 -0.625 0.0
0.5 -0.5 0.0
0.5 -0.375 0.0
0.5 -0.25 0.0
0.5 -0.125 0.0
0.5 0.0 0.0
0.5 0.125 0.0
0.5 0.25 0.0
0.5 0.375 0.0
0.5 0.5 0.0
0.5 0.625 0.0
0.5 0.75 0.0
0.5 0.875 0.0
0.5 1.0 0.0
0.625 -0.875 0.0
0.625 -1.0 0.0
0.625 -0.75 0.0
0.625 -0.625 0.0
0.625 -0.5 0.0
0.625 -0.375 0.0
0.625 -0.25 0.0
0.625 -0.125 0.0
0.625 0.0 0.0
0.625 0.125 0.0
0.625 0.25 0.0
0.625 0.375 0.0
0.625 0.5 0.0
0.625 0.625 0.0
0.625 0.75 0.0
0.625 0.875 0.0
0.625 1.0 0.0
0.75 -0.875 0.0
0.75 -1.0 0.0
0.75 -0.75 0.0
0.75 -0.625 0.0
0.75 -0.5 0.0
0.75 -0.375 0.0
0.75 -0.25 0.0
0.75 -0.125 0.0
0.75 0.0 0.0
0.75 0.125 0.0
0.75 0.25 0.0
0.75 0.375 0.0
0.75 0.5 0.0
0.75 0.625 0.0
0.75 0.75 0.0
0.75 0.875 0.0
0.75 1.0 0.0
0.875 -0.875 0.0
0.875 -1.0 0.0
0.875 -0.75 0.0
0.875 -0.625 0.0
0.875 -0.5 0.0
0.875 -0.375 0.0
0.875 -0.25 0.0
0.875 -0.125 0.0
0.875 0.0 0.0
0.875 0.125 0.0
0.875 0.25 0.0
0.875 0.375 0.0
0.875 0.5 0.0
0.875 0.625 0.0
0.875 0.75 0.0
0.875 0.875 0.0
0.875 1.0 0.0
1.0 -0.875 0.0
1.0 -1.0 0.0
1.0 -0.75 0.0
1.0 -0.625 0.0
1.0 -0.5 0.0
1.0 -0.375 0.0
1.0 -0.25 0.0
1.0 -0.125 0.0
1.0 0.0 0.0
1.0 0.125 0.0
1.0 0.25 0.0
1.0 0.375 0.0
1.0 0.5 0.0
1.0 0.625 0.0
1.0 0.75 0.0
1.0 0.875 0.0
1.0 1.0 0.0

POINT_DATA 289
SCALARS Radiance double
LOOKUP_TABLE default
0.0009012325052823499
0.0
0.0
0.0
0.005232102782319015
0.0
-0.003618421442667686
0.0
-0.1193733325742276
0.0
0.292677538591
1.0
0.8004604657088673
1.0
0.9878271566821692
1.0
1.023968915700144
1.0
1.0095541675707331
1.0
1.0056811428834902
1.0
1.1165169045671952
1.0
0.7048504345002038
0.0
0.1993405556177504
0.0
0.014427632616119587
0.0
-0.02212377914511021
0.0
-0.012831754938732714
0.0
-0.0005215643126601022
0.0
0.005997782836557595
0.016894669985081243
-0.08576567994068776
-0.03655359487221184
0.33775826256983127
0.7417732189565156
0.9652799092467053
1.0262047714045235
1.0096871851015263
1.0928860290339855
1.0327880721373766
0.6573079556744863
0.2586768088846818
0.04275621907618442
-0.020359095619949124
-0.0016048298124510436
0.0
0.00096470247249594
0.022170318312460954
-0.020366055318814115
-0.09576279562206218
0.016082524767975268
0.35143616035530456
0.714893148186982
0.9443817437796556
1.0104062214718736
1.0553166253107102
1.1084566441436554
0.9800116818402259
0.6417442755672159
0.2910515299816481
0.08149931406308454
-0.0012923586101529858
0.0
-0.0033903933787763126
0.012724862462514726
0.01597187469349437
-0.04666118561843267
-0.0869815450715826
0.04828977477101013
0.35973361726643593
0.6990801687927996
0.9168497502105375
1.0141965394803865
1.0874176129589899
1.1043238292062993
0.9468355254244049
0.6342087828651976
0.3310127164452807
-0.000312286484725435
0.0
-0.004045833665442609
0.0013428159509546987
0.018880147568370472
0.0028557518170899154
-0.06099009900730492
-0.07543870860034188
0.07077650044033695
0.3673647456535511
0.6819535398820062
0.8976699143178164
1.0239126434130268
1.1055254567263075
1.094608594705405
0.9209216069744853
0.6419233486793514
0.00039793780766388695
0.0
-0.002200464790083907
-0.004186555054549617
0.007475008107952639
0.019053848312592936
-0.009866961356434665
-0.06851763166998087
-0.06440110587810623
0.08921131551087903
0.3713031155453248
0.6664077342493867
0.8866677194746619
1.0330995055060037
1.1140293066506866
1.0784930134969417
0.9005170657719855
0.0005316328892551406
0.0
-0.00018217540338954166
-0.003912843949372586
-0.002004109111126347
0.012166907406454004
0.01592019777950926
-0.020582391226254833
-0.072470558946901
-0.05352299574673742
0.10402078884131807
0.37221772105063833
0.6542941411808826
0.8810274929170392
1.0399288597677547
1.111455779022306
1.049790276774915
0.0003052556645975572
0.0
0.0007596716313966951
-0.0014030028858395213
-0.004544198835214432
0.001138635398053348
0.014944947898897505
0.011328140520341297
-0.029458365172724713
-0.07396863695177314
-0.04309866264209228
0.11541359066348503
0.3716905010879999
0.6458540255848129
0.8787858348466638
1.0403134738036268
1.0850338338862895
4.635346059362365e-05
0.0
0.0006984716453807235
0.00048092243105415813
-0.0026469264449478684
-0.004116969997087706
0.004321121554576917
0.016136330194025873
0.006132614014237485
-0.03667292424036539
-0.07369316548562248
-0.033611590090282424
0.12404926267564567
0.37103875734173253
0.6411472180776755
0.8761033352024812
1.0158316316053084
-8.091651180686575e-05
0.0
0.0002604390267893063
0.0009448330687318614
-0.0001740297754119993
-0.0035515408669987295
-0.0029647173196037852
0.007133879503764459
0.016112869115616227
0.0008002420086998009
-0.04236410272538389
-0.07227930222983403
-0.02532807835731315
0.13083778666045454
0.3717764135208726
0.6389049133564029
0.8532764732515269
-7.980425417803344e-05
0.0
-6.588712495175068e-05
0.0005469257644279863
0.0009468661315567486
-0.0009851547574395308
-0.004003976740511274
-0.0013964096340590847
0.009412167557437625
0.01517926211559234
-0.004354255082399158
-0.0467360505971856
-0.07029831692118925
-0.018199985792493125
0.1374321607205903
0.3755147088523329
0.6230812998190002
-3.0399880890531618e-05
0.0
-0.00015024574415853034
5.070687727041931e-05
0.0007991731316987438
0.0007165434960041025
-0.0017810793156346515
-0.0040223961543210725
0.00035355843295465685
0.011109677375603675
0.013603448798181443
-0.009153539020348789
-0.05008871243212424
-0.06819233431475558
-0.01125909722167178
0.14728130701906864
0.37325729613323105
7.754109009461674e-06
0.0
-8.716068383534715e-05
-0.00017246871837150093
0.0002336479830358442
0.0009509228411048599
0.0003153228646445562
-0.002447238445393862
-0.0036628439491372335
0.0021203385320423297
0.012230024583810402
0.011594871674383708
-0.013585983640276845
-0.05284604455393135
-0.0657537488870563
-0.0005703440720464548
0.15950509427233273
1.6176057968321734e-05
0.0
-8.552473254152879e-06
-0.00014681951697659984
-0.00013321390292749024
0.0004363380321015089
0.0009681329575707723
-0.00018919320595008532
-0.00291606209863494
-0.0029817834591197297
0.0038013068798993786
0.012802737187141615
0.009226133296845709
-0.017990434930837636
-0.05530246680259191
-0.059632499312369615
0.019933039561559795
8.428361621822283e-06
0.0
2.5024649257406365e-05
-4.4354224149282274e-05
-0.00018415168588835235
-3.284918163843805e-05
0.000611948717001722
0.0008338225366574898
-0.0007458213617217485
-0.003129035335654755
-0.0019734354421036345
0.00537942086401837
0.012785611970033367
0.006136403432653721
-0.023345351998264735
-0.05549735015973441
-0.03971111350088887
7.650822095816061e-07
0.0
1.843873123474985e-05
1.4423352952597139e-05
-8.970984199855102e-05
-0.00017330956975598088
0.00012484237282483904
0.0007156366255498388
0.0005017039534443158
-0.0013426847713573387
-0.0029790420020022485
-0.00043592989098283194
0.007000700733880274
0.011765700641857545
0.0007000269069805127
-0.03067455803173857
-0.043448410041078474
