# vtk DataFile Version 2.0
Packing Fraction Fields
ASCII
DATASET UNSTRUCTURED_GRID
POINTS 20 double
0.0 0.0 0.0
0.210526315789 0.0 0.0
0.421052631579 0.0 0.0
0.631578947368 0.0 0.0
0.842105263158 0.0 0.0
1.05263157895 0.0 0.0
1.26315789474 0.0 0.0
1.47368421053 0.0 0.0
1.68421052632 0.0 0.0
1.89473684211 0.0 0.0
2.10526315789 0.0 0.0
2.31578947368 0.0 0.0
2.52631578947 0.0 0.0
2.73684210526 0.0 0.0
2.94736842105 0.0 0.0
3.15789473684 0.0 0.0
3.36842105263 0.0 0.0
3.57894736842 0.0 0.0
3.78947368421 0.0 0.0
4.0 0.0 0.0

POINT_DATA 20
SCALARS Radiance double
LOOKUP_TABLE default
0.0
36.8421052632
70.5263157895
101.894736842
131.789473684
161.052631579
190.526315789
221.052631579
253.473684211
287.157894737
321.263157895
354.947368421
387.368421053
417.684210526
445.052631579
468.631578947
487.578947368
501.052631579
508.210526316
508.210526316
