# vtk DataFile Version 2.0
Packing Fraction Fields
ASCII
DATASET UNSTRUCTURED_GRID
POINTS 4225 double
0.4375 0.875 0.0
0.46875 0.875 0.0
0.46875 0.90625 0.0
0.4375 0.90625 0.0
0.4375 0.9375 0.0
0.46875 0.9375 0.0
0.5 0.9375 0.0
0.5 0.90625 0.0
0.5 0.875 0.0
0.375 0.9375 0.0
0.375 0.90625 0.0
0.40625 0.90625 0.0
0.40625 0.9375 0.0
0.40625 0.875 0.0
0.375 0.875 0.0
0.4375 1.0 0.0
0.40625 1.0 0.0
0.40625 0.96875 0.0
0.4375 0.96875 0.0
0.375 0.96875 0.0
0.375 1.0 0.0
0.5 0.96875 0.0
0.46875 0.96875 0.0
0.46875 1.0 0.0
0.5 1.0 0.0
0.4375 0.75 0.0
0.46875 0.75 0.0
0.46875 0.78125 0.0
0.4375 0.78125 0.0
0.4375 0.8125 0.0
0.46875 0.8125 0.0
0.5 0.8125 0.0
0.5 0.78125 0.0
0.5 0.75 0.0
0.375 0.8125 0.0
0.375 0.78125 0.0
0.40625 0.78125 0.0
0.40625 0.8125 0.0
0.40625 0.75 0.0
0.375 0.75 0.0
0.40625 0.84375 0.0
0.4375 0.84375 0.0
0.375 0.84375 0.0
0.5 0.84375 0.0
0.46875 0.84375 0.0
0.4375 0.625 0.0
0.46875 0.625 0.0
0.46875 0.65625 0.0
0.4375 0.65625 0.0
0.4375 0.6875 0.0
0.46875 0.6875 0.0
0.5 0.6875 0.0
0.5 0.65625 0.0
0.5 0.625 0.0
0.375 0.6875 0.0
0.375 0.65625 0.0
0.40625 0.65625 0.0
0.40625 0.6875 0.0
0.40625 0.625 0.0
0.375 0.625 0.0
0.40625 0.71875 0.0
0.4375 0.71875 0.0
0.375 0.71875 0.0
0.5 0.71875 0.0
0.46875 0.71875 0.0
0.4375 0.5 0.0
0.46875 0.5 0.0
0.46875 0.53125 0.0
0.4375 0.53125 0.0
0.4375 0.5625 0.0
0.46875 0.5625 0.0
0.5 0.5625 0.0
0.5 0.53125 0.0
0.5 0.5 0.0
0.375 0.5625 0.0
0.375 0.53125 0.0
0.40625 0.53125 0.0
0.40625 0.5625 0.0
0.40625 0.5 0.0
0.375 0.5 0.0
0.40625 0.59375 0.0
0.4375 0.59375 0.0
0.375 0.59375 0.0
0.5 0.59375 0.0
0.46875 0.59375 0.0
0.4375 0.375 0.0
0.46875 0.375 0.0
0.46875 0.40625 0.0
0.4375 0.40625 0.0
0.4375 0.4375 0.0
0.46875 0.4375 0.0
0.5 0.4375 0.0
0.5 0.40625 0.0
0.5 0.375 0.0
0.375 0.4375 0.0
0.375 0.40625 0.0
0.40625 0.40625 0.0
0.40625 0.4375 0.0
0.40625 0.375 0.0
0.375 0.375 0.0
0.40625 0.46875 0.0
0.4375 0.46875 0.0
0.375 0.46875 0.0
0.5 0.46875 0.0
0.46875 0.46875 0.0
0.4375 0.25 0.0
0.46875 0.25 0.0
0.46875 0.28125 0.0
0.4375 0.28125 0.0
0.4375 0.3125 0.0
0.46875 0.3125 0.0
0.5 0.3125 0.0
0.5 0.28125 0.0
0.5 0.25 0.0
0.375 0.3125 0.0
0.375 0.28125 0.0
0.40625 0.28125 0.0
0.40625 0.3125 0.0
0.40625 0.25 0.0
0.375 0.25 0.0
0.40625 0.34375 0.0
0.4375 0.34375 0.0
0.375 0.34375 0.0
0.5 0.34375 0.0
0.46875 0.34375 0.0
0.4375 0.125 0.0
0.46875 0.125 0.0
0.46875 0.15625 0.0
0.4375 0.15625 0.0
0.4375 0.1875 0.0
0.46875 0.1875 0.0
0.5 0.1875 0.0
0.5 0.15625 0.0
0.5 0.125 0.0
0.375 0.1875 0.0
0.375 0.15625 0.0
0.40625 0.15625 0.0
0.40625 0.1875 0.0
0.40625 0.125 0.0
0.375 0.125 0.0
0.40625 0.21875 0.0
0.4375 0.21875 0.0
0.375 0.21875 0.0
0.5 0.21875 0.0
0.46875 0.21875 0.0
0.4375 0.0 0.0
0.46875 0.0 0.0
0.46875 0.03125 0.0
0.4375 0.03125 0.0
0.4375 0.0625 0.0
0.46875 0.0625 0.0
0.5 0.0625 0.0
0.5 0.03125 0.0
0.5 0.0 0.0
0.375 0.0625 0.0
0.375 0.03125 0.0
0.40625 0.03125 0.0
0.40625 0.0625 0.0
0.40625 0.0 0.0
0.375 0.0 0.0
0.40625 0.09375 0.0
0.4375 0.09375 0.0
0.375 0.09375 0.0
0.5 0.09375 0.0
0.46875 0.09375 0.0
0.4375 -0.125 0.0
0.46875 -0.125 0.0
0.46875 -0.09375 0.0
0.4375 -0.09375 0.0
0.4375 -0.0625 0.0
0.46875 -0.0625 0.0
0.5 -0.0625 0.0
0.5 -0.09375 0.0
0.5 -0.125 0.0
0.375 -0.0625 0.0
0.375 -0.09375 0.0
0.40625 -0.09375 0.0
0.40625 -0.0625 0.0
0.40625 -0.125 0.0
0.375 -0.125 0.0
0.40625 -0.03125 0.0
0.4375 -0.03125 0.0
0.375 -0.03125 0.0
0.5 -0.03125 0.0
0.46875 -0.03125 0.0
0.4375 -0.25 0.0
0.46875 -0.25 0.0
0.46875 -0.21875 0.0
0.4375 -0.21875 0.0
0.4375 -0.1875 0.0
0.46875 -0.1875 0.0
0.5 -0.1875 0.0
0.5 -0.21875 0.0
0.5 -0.25 0.0
0.375 -0.1875 0.0
0.375 -0.21875 0.0
0.40625 -0.21875 0.0
0.40625 -0.1875 0.0
0.40625 -0.25 0.0
0.375 -0.25 0.0
0.40625 -0.15625 0.0
0.4375 -0.15625 0.0
0.375 -0.15625 0.0
0.5 -0.15625 0.0
0.46875 -0.15625 0.0
0.4375 -0.375 0.0
0.46875 -0.375 0.0
0.46875 -0.34375 0.0
0.4375 -0.34375 0.0
0.4375 -0.3125 0.0
0.46875 -0.3125 0.0
0.5 -0.3125 0.0
0.5 -0.34375 0.0
0.5 -0.375 0.0
0.375 -0.3125 0.0
0.375 -0.34375 0.0
0.40625 -0.34375 0.0
0.40625 -0.3125 0.0
0.40625 -0.375 0.0
0.375 -0.375 0.0
0.40625 -0.28125 0.0
0.4375 -0.28125 0.0
0.375 -0.28125 0.0
0.5 -0.28125 0.0
0.46875 -0.28125 0.0
0.4375 -0.5 0.0
0.46875 -0.5 0.0
0.46875 -0.46875 0.0
0.4375 -0.46875 0.0
0.4375 -0.4375 0.0
0.46875 -0.4375 0.0
0.5 -0.4375 0.0
0.5 -0.46875 0.0
0.5 -0.5 0.0
0.375 -0.4375 0.0
0.375 -0.46875 0.0
0.40625 -0.46875 0.0
0.40625 -0.4375 0.0
0.40625 -0.5 0.0
0.375 -0.5 0.0
0.40625 -0.40625 0.0
0.4375 -0.40625 0.0
0.375 -0.40625 0.0
0.5 -0.40625 0.0
0.46875 -0.40625 0.0
0.4375 -0.625 0.0
0.46875 -0.625 0.0
0.46875 -0.59375 0.0
0.4375 -0.59375 0.0
0.4375 -0.5625 0.0
0.46875 -0.5625 0.0
0.5 -0.5625 0.0
0.5 -0.59375 0.0
0.5 -0.625 0.0
0.375 -0.5625 0.0
0.375 -0.59375 0.0
0.40625 -0.59375 0.0
0.40625 -0.5625 0.0
0.40625 -0.625 0.0
0.375 -0.625 0.0
0.40625 -0.53125 0.0
0.4375 -0.53125 0.0
0.375 -0.53125 0.0
0.5 -0.53125 0.0
0.46875 -0.53125 0.0
0.4375 -0.75 0.0
0.46875 -0.75 0.0
0.46875 -0.71875 0.0
0.4375 -0.71875 0.0
0.4375 -0.6875 0.0
0.46875 -0.6875 0.0
0.5 -0.6875 0.0
0.5 -0.71875 0.0
0.5 -0.75 0.0
0.375 -0.6875 0.0
0.375 -0.71875 0.0
0.40625 -0.71875 0.0
0.40625 -0.6875 0.0
0.40625 -0.75 0.0
0.375 -0.75 0.0
0.40625 -0.65625 0.0
0.4375 -0.65625 0.0
0.375 -0.65625 0.0
0.5 -0.65625 0.0
0.46875 -0.65625 0.0
0.4375 -0.875 0.0
0.46875 -0.875 0.0
0.46875 -0.84375 0.0
0.4375 -0.84375 0.0
0.4375 -0.8125 0.0
0.46875 -0.8125 0.0
0.5 -0.8125 0.0
0.5 -0.84375 0.0
0.5 -0.875 0.0
0.375 -0.8125 0.0
0.375 -0.84375 0.0
0.40625 -0.84375 0.0
0.40625 -0.8125 0.0
0.40625 -0.875 0.0
0.375 -0.875 0.0
0.40625 -0.78125 0.0
0.4375 -0.78125 0.0
0.375 -0.78125 0.0
0.5 -0.78125 0.0
0.46875 -0.78125 0.0
0.4375 -1.0 0.0
0.46875 -1.0 0.0
0.46875 -0.96875 0.0
0.4375 -0.96875 0.0
0.4375 -0.9375 0.0
0.46875 -0.9375 0.0
0.5 -0.9375 0.0
0.5 -0.96875 0.0
0.5 -1.0 0.0
0.375 -0.9375 0.0
0.375 -0.96875 0.0
0.40625 -0.96875 0.0
0.40625 -0.9375 0.0
0.40625 -1.0 0.0
0.375 -1.0 0.0
0.40625 -0.90625 0.0
0.4375 -0.90625 0.0
0.375 -0.90625 0.0
0.5 -0.90625 0.0
0.46875 -0.90625 0.0
0.3125 0.875 0.0
0.34375 0.875 0.0
0.34375 0.90625 0.0
0.3125 0.90625 0.0
0.3125 0.9375 0.0
0.34375 0.9375 0.0
0.25 0.9375 0.0
0.25 0.90625 0.0
0.28125 0.90625 0.0
0.28125 0.9375 0.0
0.28125 0.875 0.0
0.25 0.875 0.0
0.3125 1.0 0.0
0.28125 1.0 0.0
0.28125 0.96875 0.0
0.3125 0.96875 0.0
0.25 0.96875 0.0
0.25 1.0 0.0
0.34375 0.96875 0.0
0.34375 1.0 0.0
0.3125 0.75 0.0
0.34375 0.75 0.0
0.34375 0.78125 0.0
0.3125 0.78125 0.0
0.3125 0.8125 0.0
0.34375 0.8125 0.0
0.25 0.8125 0.0
0.25 0.78125 0.0
0.28125 0.78125 0.0
0.28125 0.8125 0.0
0.28125 0.75 0.0
0.25 0.75 0.0
0.28125 0.84375 0.0
0.3125 0.84375 0.0
0.25 0.84375 0.0
0.34375 0.84375 0.0
0.3125 0.625 0.0
0.34375 0.625 0.0
0.34375 0.65625 0.0
0.3125 0.65625 0.0
0.3125 0.6875 0.0
0.34375 0.6875 0.0
0.25 0.6875 0.0
0.25 0.65625 0.0
0.28125 0.65625 0.0
0.28125 0.6875 0.0
0.28125 0.625 0.0
0.25 0.625 0.0
0.28125 0.71875 0.0
0.3125 0.71875 0.0
0.25 0.71875 0.0
0.34375 0.71875 0.0
0.3125 0.5 0.0
0.34375 0.5 0.0
0.34375 0.53125 0.0
0.3125 0.53125 0.0
0.3125 0.5625 0.0
0.34375 0.5625 0.0
0.25 0.5625 0.0
0.25 0.53125 0.0
0.28125 0.53125 0.0
0.28125 0.5625 0.0
0.28125 0.5 0.0
0.25 0.5 0.0
0.28125 0.59375 0.0
0.3125 0.59375 0.0
0.25 0.59375 0.0
0.34375 0.59375 0.0
0.3125 0.375 0.0
0.34375 0.375 0.0
0.34375 0.40625 0.0
0.3125 0.40625 0.0
0.3125 0.4375 0.0
0.34375 0.4375 0.0
0.25 0.4375 0.0
0.25 0.40625 0.0
0.28125 0.40625 0.0
0.28125 0.4375 0.0
0.28125 0.375 0.0
0.25 0.375 0.0
0.28125 0.46875 0.0
0.3125 0.46875 0.0
0.25 0.46875 0.0
0.34375 0.46875 0.0
0.3125 0.25 0.0
0.34375 0.25 0.0
0.34375 0.28125 0.0
0.3125 0.28125 0.0
0.3125 0.3125 0.0
0.34375 0.3125 0.0
0.25 0.3125 0.0
0.25 0.28125 0.0
0.28125 0.28125 0.0
0.28125 0.3125 0.0
0.28125 0.25 0.0
0.25 0.25 0.0
0.28125 0.34375 0.0
0.3125 0.34375 0.0
0.25 0.34375 0.0
0.34375 0.34375 0.0
0.3125 0.125 0.0
0.34375 0.125 0.0
0.34375 0.15625 0.0
0.3125 0.15625 0.0
0.3125 0.1875 0.0
0.34375 0.1875 0.0
0.25 0.1875 0.0
0.25 0.15625 0.0
0.28125 0.15625 0.0
0.28125 0.1875 0.0
0.28125 0.125 0.0
0.25 0.125 0.0
0.28125 0.21875 0.0
0.3125 0.21875 0.0
0.25 0.21875 0.0
0.34375 0.21875 0.0
0.3125 0.0 0.0
0.34375 0.0 0.0
0.34375 0.03125 0.0
0.3125 0.03125 0.0
0.3125 0.0625 0.0
0.34375 0.0625 0.0
0.25 0.0625 0.0
0.25 0.03125 0.0
0.28125 0.03125 0.0
0.28125 0.0625 0.0
0.28125 0.0 0.0
0.25 0.0 0.0
0.28125 0.09375 0.0
0.3125 0.09375 0.0
0.25 0.09375 0.0
0.34375 0.09375 0.0
0.3125 -0.125 0.0
0.34375 -0.125 0.0
0.34375 -0.09375 0.0
0.3125 -0.09375 0.0
0.3125 -0.0625 0.0
0.34375 -0.0625 0.0
0.25 -0.0625 0.0
0.25 -0.09375 0.0
0.28125 -0.09375 0.0
0.28125 -0.0625 0.0
0.28125 -0.125 0.0
0.25 -0.125 0.0
0.28125 -0.03125 0.0
0.3125 -0.03125 0.0
0.25 -0.03125 0.0
0.34375 -0.03125 0.0
0.3125 -0.25 0.0
0.34375 -0.25 0.0
0.34375 -0.21875 0.0
0.3125 -0.21875 0.0
0.3125 -0.1875 0.0
0.34375 -0.1875 0.0
0.25 -0.1875 0.0
0.25 -0.21875 0.0
0.28125 -0.21875 0.0
0.28125 -0.1875 0.0
0.28125 -0.25 0.0
0.25 -0.25 0.0
0.28125 -0.15625 0.0
0.3125 -0.15625 0.0
0.25 -0.15625 0.0
0.34375 -0.15625 0.0
0.3125 -0.375 0.0
0.34375 -0.375 0.0
0.34375 -0.34375 0.0
0.3125 -0.34375 0.0
0.3125 -0.3125 0.0
0.34375 -0.3125 0.0
0.25 -0.3125 0.0
0.25 -0.34375 0.0
0.28125 -0.34375 0.0
0.28125 -0.3125 0.0
0.28125 -0.375 0.0
0.25 -0.375 0.0
0.28125 -0.28125 0.0
0.3125 -0.28125 0.0
0.25 -0.28125 0.0
0.34375 -0.28125 0.0
0.3125 -0.5 0.0
0.34375 -0.5 0.0
0.34375 -0.46875 0.0
0.3125 -0.46875 0.0
0.3125 -0.4375 0.0
0.34375 -0.4375 0.0
0.25 -0.4375 0.0
0.25 -0.46875 0.0
0.28125 -0.46875 0.0
0.28125 -0.4375 0.0
0.28125 -0.5 0.0
0.25 -0.5 0.0
0.28125 -0.40625 0.0
0.3125 -0.40625 0.0
0.25 -0.40625 0.0
0.34375 -0.40625 0.0
0.3125 -0.625 0.0
0.34375 -0.625 0.0
0.34375 -0.59375 0.0
0.3125 -0.59375 0.0
0.3125 -0.5625 0.0
0.34375 -0.5625 0.0
0.25 -0.5625 0.0
0.25 -0.59375 0.0
0.28125 -0.59375 0.0
0.28125 -0.5625 0.0
0.28125 -0.625 0.0
0.25 -0.625 0.0
0.28125 -0.53125 0.0
0.3125 -0.53125 0.0
0.25 -0.53125 0.0
0.34375 -0.53125 0.0
0.3125 -0.75 0.0
0.34375 -0.75 0.0
0.34375 -0.71875 0.0
0.3125 -0.71875 0.0
0.3125 -0.6875 0.0
[...]
POINT_DATA 4225
SCALARS Radiance double
LOOKUP_TABLE default
0.717978075888
0.851478792546
0.717784684018
0.571407040653
0.424646293942
0.572164362341
0.71771592791
0.850607186074
0.960735118884
0.167167280839
0.284432749066
0.423147598262
0.286455551002
0.570848618203
0.421882199307
0.172819498579
0.0784892074868
0.169727933838
0.288848188908
0.0757031685449
0.0117644601433
0.573223550576
0.426508561495
0.291822497156
0.428934666718
1.08195899724
1.07973260558
1.08057840733
1.04189316287
0.963360647836
1.04046156628
1.07912541961
1.07843848947
1.03747365631
0.718606272774
0.854207960176
0.964633103943
0.853276915164
1.0432822542
0.965898786538
0.718259507831
0.852368025309
0.570422745314
1.03896387991
0.962067851001
0.852879991709
0.721382944754
0.852254196172
0.961549387664
1.03961183057
0.960697505777
0.851627391868
0.721072120487
0.577803952855
1.08457761461
1.08328108919
1.04062088144
1.08214164518
0.962385036302
1.04159973836
1.08328775122
1.0809618897
1.04464436931
0.9598219467
1.03856628599
0.292594774153
0.172669836798
0.293609948166
0.431124353562
0.577636497284
0.431673810433
0.294616208201
0.174001222706
0.0771031456262
0.854149662415
0.722416441564
0.57758095118
0.72205105252
0.430583447849
0.57754787285
0.853510413669
0.72170779981
0.963209221754
0.432230755849
0.577711803317
-0.0367548699532
-0.0539928026316
-0.0358875118996
0.00488892661624
0.0742059795914
0.00617919332737
-0.0350299739001
-0.0536783489735
-0.05426439828
0.290534212078
0.168521508336
0.0727086163485
0.169932218797
0.00357163124844
0.0711753731702
0.291569835355
0.171314233097
0.430052088832
0.00744408398765
0.075669998854
-0.0267194301365
-0.0127621754593
-0.0275452909835
-0.042367183482
-0.0537954779004
-0.043017363093
-0.0283480628867
-0.013523209284
-0.0022855141658
-0.038519711186
-0.0548758601193
-0.0535232199093
-0.0545928202211
-0.0416865406821
-0.0532231597174
-0.0376322479294
-0.0542980141114
0.00222568069041
-0.0436386336245
-0.0540419305404
0.00662119788131
0.0058542046923
0.00660815496721
0.00480978292121
-0.00117867328368
0.00454290569516
0.0065785140257
0.00599077299043
0.004014913525
-0.0249960362918
-0.0104204309036
-0.000632483297057
-0.0112102538319
0.00506157018352
-9.28039810001e-05
-0.0258698694757
-0.011991032673
-0.040973799966
0.00426216864495
-0.0017300743599
4.50540623159e-05
-0.000623526092787
0.000153626544308
0.00151335123011
0.00360932666579
0.00169167160624
0.000267679909225
-0.000581364083783
-0.000795840042919
0.00659454192435
0.00536716846015
0.00339846179903
0.00554240425842
0.00133697372311
0.00318297954571
0.00661690329189
0.00570476048336
0.00529696681444
0.00187123654309
0.00381498174257
-0.000281945597331
-8.34133810894e-05
-0.000317157009972
-0.000565016902755
-0.000770609157565
-0.000601579681791
-0.00035284382891
-0.000107289159119
3.67350623291e-05
-0.000153526808521
-0.000711652875995
-0.000751356677109
-0.000688838089078
-0.000526944320612
-0.000727893070862
-5.75068682097e-05
-0.000659412580066
0.00116328401903
-0.000636353302033
-0.000785479720933
6.43320641868e-05
3.79841122222e-05
6.97631614702e-05
8.31197056907e-05
5.45248943563e-05
8.46729321802e-05
7.49098656051e-05
4.3307176056e-05
1.45220600855e-05
-0.000213970239229
-2.18213933033e-05
6.10219211833e-05
-4.05580446172e-05
8.06557764794e-05
6.59427271218e-05
-0.000247464427072
-6.11267197368e-05
-0.000487667262746
8.52365232525e-05
4.64303338219e-05
-7.52526781984e-06
-6.35714817505e-06
-7.80236910445e-06
-4.53380342668e-06
8.08010077249e-06
-3.55947151973e-06
-7.94361624012e-06
-7.02209041082e-06
-3.94198326155e-06
5.29669111404e-05
2.33353324546e-05
5.38457451255e-06
2.79473940046e-05
-5.24395847517e-06
3.04864230859e-06
5.87037531719e-05
3.28464418007e-05
7.73712740278e-05
-2.30570543642e-06
1.11297627833e-05
3.6753475763e-07
5.97118701879e-07
2.97861231943e-07
-6.24095612972e-07
-2.7603292564e-06
-9.18838877889e-07
1.95298673043e-07
6.2927449441e-07
5.23901561403e-07
-6.65180477321e-06
-4.33438660807e-06
-2.24234406237e-06
-4.99857169961e-06
-3.79528068312e-07
-1.77844707422e-06
-7.13423169446e-06
-5.67752341431e-06
-5.70888910069e-06
-1.26546783615e-06
-3.32865242381e-06
3.33210618736e-08
-2.14369523464e-08
5.38488551321e-08
1.73715499412e-07
3.88122604139e-07
2.20958815836e-07
7.97806062114e-08
-1.61857405752e-08
-3.97157315689e-08
4.24829834714e-07
4.46812693404e-07
3.25208730251e-07
5.02717299419e-07
1.33119940783e-07
2.67226802461e-07
4.0842558061e-07
5.53833810262e-07
-1.82471571438e-07
2.74821573201e-07
4.54839074688e-07
-8.04969176465e-09
-2.33029856603e-09
-1.10029929001e-08
-1.98505265768e-08
-3.11328378368e-08
-2.47972502103e-08
-1.45956223169e-08
-3.76770878354e-09
9.29806054376e-10
6.1684122617e-09
-2.36741091458e-08
-2.64565577346e-08
-2.46560323185e-08
-1.54886781975e-08
-2.18541437477e-08
1.76318770388e-08
-2.40789940543e-08
9.90015318749e-08
-3.02687949009e-08
-3.56487202953e-08
6.27344474678e-10
3.44704501621e-10
9.0134835334e-10
1.14755126214e-09
1.05009918608e-09
1.47266530606e-09
1.22823274851e-09
5.24612476545e-10
1.15474113569e-10
-3.8414653738e-09
-1.351939798e-10
9.42505499075e-10
-5.81751199589e-10
8.44792286005e-10
7.74791214825e-10
-5.6833595937e-09
-1.29152638911e-09
-1.17373869562e-08
1.80497709069e-09
1.06059951861e-09
0.0
0.0
-1.68029925645e-11
-1.19065923295e-11
2.47571658498e-11
-2.13945443097e-11
-3.61132044166e-11
-1.41102607821e-11
0.0
2.28950181454e-10
4.3030280909e-11
6.5289644787e-12
1.10608789364e-10
0.0
0.0
4.04425852642e-10
2.08958975305e-10
5.74528832304e-10
-2.59997689552e-11
5.92833266923e-11
0.16291808265
0.282641459458
0.164940319069
0.0712816999025
0.00779599893498
0.0733553567342
-0.0462815916907
-0.0315783229163
0.00618768404513
-0.0306277765147
0.0693750193078
0.00470954328959
-0.0453797078578
-0.0459121977195
-0.0459106935392
-0.0295236366356
-0.0457892907514
-0.0365386038606
0.00961411701599
-0.028183995612
0.719446555078
0.855163866674
0.719004610879
0.569813635673
0.419741629704
0.570086816439
0.159178039853
0.277895408596
0.418775117647
0.279422249574
0.569586021586
0.417842123241
0.161015941892
0.280991133641
0.0675650707966
0.420765296702
1.08706860873
1.08438535145
1.08583643324
1.04732470563
0.968445294573
1.04598966442
0.720447030211
0.858209312164
0.969738076478
0.857161594371
1.04865365181
0.971049542653
0.719927921006
0.856147446146
0.569393315736
0.967167230926
0.855467520115
0.72280740084
0.854801077722
0.964834211316
1.04347866398
0.964024977144
1.08945954352
1.08750138216
1.04438038196
1.08649578264
0.965638110798
1.04525619172
1.0882761829
1.08545677891
1.04997903787
1.04255183456
0.288426710529
0.167079665193
0.289486886123
0.429021877162
0.577559779104
0.429531244647
0.856855999991
0.724167628506
0.577610286414
0.723679489321
0.428524951135
0.577694431858
0.856151628602
0.723227278358
0.966437405213
0.577539915108
-0.0403244959429
-0.0551455657378
-0.0394171944273
-0.000558724264849
0.067990474248
0.000849445388208
0.286262387169
0.162539699755
0.066333002782
0.164091787433
-0.00200050619734
0.0646279587884
0.287352378003
0.165604052348
0.428041435201
0.0696035964941
-0.0231735326955
-0.00962229038587
-0.0240974090535
-0.0394451002273
-0.0525307131936
-0.0402272487458
-0.0421669777259
-0.0558555271056
-0.0521333691609
-0.0556375674117
-0.0386254984932
-0.0516982834182
-0.0412412641767
-0.0554001462166
-0.00347760814622
-0.0528931160745
0.00649281426636
0.00517916548016
0.00655340469226
0.00571304450814
0.000961134003676
0.00551460336689
-0.0212486551338
-0.00718762299483
0.00147207525048
-0.00800474094919
0.00589079341478
0.00196985240171
-0.0222240365263
-0.00881671061022
-0.0377665255327
0.00043892887868
-0.000323868010175
-0.000727748933092
-0.000242483327243
0.000827174294827
0.00274096498979
0.000993072785221
0.00631080600509
0.00454114069773
0.00251606756941
0.00476578181468
0.000666462897033
0.00228983287886
0.00641213850273
0.00497859992631
0.00604629805762
0.00296355760333
-0.000150958991293
-5.01317867277e-06
-0.000181718384552
-0.000406842690335
-0.000669243862996
-0.000447515778657
-0.000462009366805
-0.000735410827884
-0.000634634761407
-0.00073960117289
-0.000366020832424
-0.00059697069337
-0.000397194749595
-0.000737066531075
0.000511847870843
-0.000700434294966
4.15206404233e-05
1.90527059171e-05
4.72102075378e-05
6.87513068665e-05
7.12364651631e-05
7.33666182151e-05
-9.48653175162e-05
3.32017104474e-05
7.17490288739e-05
2.25377615779e-05
6.36423632609e-05
7.09647240428e-05
-0.000121932603162
9.79070200706e-06
-0.000325439371833
6.93276118474e-05
-5.50294312521e-06
-3.69750001993e-06
-6.10063588135e-06
-5.9948164997e-06
-5.53830075525e-07
-5.95083544621e-06
3.0671817719e-05
8.49701683973e-06
-1.84067235761e-06
1.16101022279e-05
-5.86802174606e-06
-2.8081206855e-06
3.59817608186e-05
1.5135052885e-05
5.81624233364e-05
1.07152837544e-06
4.01514283044e-07
3.88843925294e-07
4.21099885137e-07
8.37512365724e-08
-1.01992376914e-06
-2.943432597e-08
-4.25150484492e-06
-2.04753142734e-06
-7.24931420925e-07
-2.54645724925e-06
1.61758118621e-07
-4.83499314417e-07
-4.87997759387e-06
-3.09862568685e-06
-5.59911245243e-06
-1.37078440191e-06
-6.6129174492e-09
-2.15894971817e-08
-1.70316150458e-09
4.86987192592e-08
1.68952724147e-07
7.10200177563e-08
3.30803829509e-07
2.24054628218e-07
1.29343482446e-07
2.75725183489e-07
3.14600009734e-08
9.60879418366e-08
3.70155998829e-07
3.31164811457e-07
2.09581789171e-07
2.14979035882e-07
-1.45537703193e-09
1.08260287353e-10
-2.45560523767e-09
-6.0285241798e-09
-1.35421526692e-08
-8.59307485108e-09
-9.92104206324e-09
-1.23862892829e-08
-1.00451248477e-08
-1.56423673136e-08
-3.99865422674e-09
-7.05733791216e-09
-9.16532590637e-09
-1.88004480635e-08
1.8661201009e-08
-1.75061592897e-08
0.0
0.0
9.60179197271e-11
1.51244675657e-10
3.71342043799e-10
3.42587387596e-10
-3.39453979324e-10
1.13773208067e-10
1.7532692773e-10
1.91075066706e-10
0.0
0.0
-7.71694557741e-10
2.01819606815e-10
-2.44613704946e-09
5.76746898614e-10
-0.0467226413344
-0.0324280858253
-0.04654177941
-0.0452489286607
-0.0354066884552
-0.0455589816246
-0.00969032646714
-0.0212177028786
-0.0347487600933
-0.02197310339
-0.0448764260182
-0.0340446586287
-0.0109256119524
-0.0017730288138
-0.0103199639844
-0.0226931415541
-0.00135942997718
0.00335254540674
-0.0360085697084
-0.0233673251048
0.155558141294
0.276384234047
0.157367162372
0.0640657697298
0.00195441142673
0.0658055721019
-0.0469174595945
-0.0346545297362
0.000621500889622
-0.0339485951322
0.0623249556687
-0.000703492211092
-0.0468438561516
-0.0332109737328
-0.0444520189221
0.00330972479908
0.721599757452
0.859293746093
0.721003903659
0.569089858428
0.416019587133
0.569229124267
0.151880920807
0.271789743696
0.41511265148
0.27334231905
0.568973792866
0.414201368389
0.153733554808
0.274870742019
0.0605689008877
0.416927069729
1.09174945988
1.08847154907
1.09061787816
1.05262407336
0.973741158466
1.05130229171
0.722917516248
0.862802071778
0.975126801351
0.861586380732
1.05394449529
0.976542467755
0.722236693428
0.860418238321
0.56888045968
0.972382953541
0.85833646106
0.724695558283
0.857583319341
0.968023820482
1.04692351853
0.967232544608
1.09392184047
1.09113725211
1.04771045667
1.09029340001
0.968811451479
1.04846246916
1.09285181948
1.08940341679
1.05526326277
1.04610458982
0.284028229092
0.160944287158
0.285155005666
0.427118491432
0.577976722363
0.427572296716
0.859933156965
0.726562250569
0.578182061403
0.725888016971
0.42668094818
0.578435484412
0.859118573645
0.725267483016
0.969595647742
0.577815424613
-0.0440421436241
-0.0560514262643
-0.0431009192824
-0.00654472156114
0.0610610144349
-0.00499176344373
0.281706829041
0.155857145648
0.0591913550566
0.157607549813
-0.00813823341204
0.0572585639065
0.282879734742
0.159301671244
0.426260548293
0.0628718744074
-0.0192198511235
-0.00636681377077
-0.0202472526928
-0.035922543591
-0.0507025133351
-0.0368662107572
-0.0459412847633
-0.0564756084389
-0.0501350178988
-0.0563649638002
-0.0349334897984
-0.0495161341319
-0.0449894394657
-0.0562223365027
-0.00977403107553
-0.0512224237693
0.00604429950571
0.00430524068877
0.00618832409967
0.00628414489651
0.00291744150913
0.00617795981265
-0.0170881269517
-0.00390058603381
0.00336255847606
-0.00472118062317
0.00636319920061
0.00378510986827
-0.0181666625984
-0.00554401102471
-0.0338970123063
0.00245239241772
-0.000564512579057
-0.000724623278144
-0.000517900614031
0.000224674408444
0.00183775199999
0.00036426640496
0.00569069126174
0.00353798314179
0.00161437688622
0.00380268879282
9.40348246786e-05
0.00139460588594
0.00587846198665
0.00405879628212
0.00641346719064
0.00206333398153
-4.74080141943e-05
4.17850068103e-05
-6.99634785353e-05
-0.000246606616974
-0.000514187018499
-0.000285499101622
-0.000628835740398
-0.000655151371022
-0.000470045571773
-0.000684159807822
-0.000209167304839
-0.000424799334666
-0.000601558475626
-0.000707443358511
-2.66969021385e-05
-0.000556666429893
2.1013981122e-05
5.80583022962e-06
2.56618768254e-05
4.65941537279e-05
6.59967838104e-05
5.24374589222e-05
-9.8974743519e-06
5.55480406446e-05
6.21009609817e-05
5.28756193915e-05
4.07569735636e-05
5.74791561279e-05
-2.73485487734e-05
4.83210179312e-05
-0.000173577116981
6.90019521153e-05
-3.04685860609e-06
-1.60616554039e-06
-3.63532559646e-06
-4.75226984806e-06
-3.88759746034e-06
-5.21744919619e-06
1.29973124077e-05
2.22413705704e-07
-4.06187526176e-06
1.68201128075e-06
-4.23184949431e-06
-4.03931037925e-06
1.6779435807e-05
3.53712650638e-06
3.50450013355e-05
-3.48069012392e-06
2.41189069461e-07
1.77263983727e-07
2.86841598899e-07
2.35149596382e-07
-1.46296043838e-07
2.32352239131e-07
-2.00094064083e-06
-6.38275845111e-07
-4.07948197973e-08
-9.02479048622e-07
2.22832175116e-07
3.00967762099e-08
-2.49880866371e-06
-1.22447580192e-06
-3.68268007198e-06
-2.9211904107e-07
-7.9863324712e-09
-9.24036424794e-09
-9.38288937186e-09
3.69241672707e-09
4.73351707839e-08
9.62925922744e-09
1.53930458756e-07
7.14903699584e-08
3.07994999644e-08
1.00798065622e-07
2.07609702156e-10
1.86351510541e-08
1.96257387974e-07
1.36063807948e-07
1.99885509822e-07
6.89038515269e-08
0.0
0.0
-9.95142513659e-11
-5.13088466225e-10
-2.6153301274e-09
-1.30658321361e-09
-3.99711081034e-09
-1.70076962034e-09
-1.10365321142e-09
-3.82358713424e-09
0.0
0.0
-6.09444663595e-09
-6.35392494741e-09
-1.41746998234e-09
-4.58699583916e-09
-0.00838840095661
-0.0204337519703
-0.00904465147029
-0.000523812953296
0.00372583242751
-0.00094120141231
0.00422000397309
0.00499350842131
0.00389414291492
0.00502016712271
-0.000111207772641
0.00404790809306
0.00442726764825
0.00285307793862
0.00433479827488
0.00502834312845
0.00273092996521
0.00124594204538
0.00354460488528
0.00501636106372
-0.0469465674329
-0.0353370885046
-0.0469504676996
-0.0434691205668
-0.0325195739936
-0.0439818403438
-0.00705883781477
-0.017948343255
-0.0317040621419
-0.0187965561028
-0.0429151616993
-0.0308547708597
-0.00772547898966
-0.0196257112947
0.000293606087973
-0.0333004160427
0.148055889097
0.270205885427
0.149990860114
0.0569734314851
-0.00336457669045
0.0587875343651
-0.0468322685345
-0.0372817184641
-0.00471109120496
-0.0366490179364
0.055120828431
-0.006072353209
-0.0469072027764
-0.0360010930407
-0.0423199661546
-0.00203009153529
0.724425011752
0.864069576243
0.723645633545
0.568764219404
0.412352307395
0.568810260368
0.144026224751
0.265210433166
0.41140945284
0.266921359437
0.568743830097
0.410451497872
0.146069620029
0.26858484198
0.0532249785078
0.413282174257
1.09594936876
1.0919300789
1.09495579971
1.05789309885
0.97947455028
1.05657975997
0.726156205813
0.868232494976
0.980996713709
0.866779304801
1.05920214133
0.982560527549
0.725260170577
0.865393589053
0.568750960822
0.977990793699
0.861675952207
0.727295818354
0.86078413835
0.971154844107
1.04984801944
0.97037666343
1.0977947965
1.09394318986
1.05047372491
1.09333970542
0.971930674002
1.05104881016
1.09689758483
1.09266632007
1.06050550186
1.04917622887
0.279274786222
0.154045150951
0.280506387534
0.425474300223
0.579104442007
0.425858099064
0.863602882084
0.729918592393
0.579529825402
0.728966654105
0.425109702138
0.580023036569
0.862613626886
0.728094971135
0.972704827199
0.57874136681
-0.0478506629809
-0.0565501210969
-0.0468957948926
-0.0131791521251
0.0531846046683
-0.0114538013258
0.27670062759
0.148177280066
0.0510330716795
0.150212137852
-0.0149515710355
0.0487976512345
0.27800782296
0.152165666893
0.424764654133
0.0552579815412
-0.0148581757475
-0.00308481982764
-0.0159849546102
-0.0316737873085
-0.0481075828483
-0.0328110973987
-0.0497497144231
-0.0565075969118
-0.0473088814368
-0.0565716140881
-0.0304832204202
-0.0464407170513
-0.0488030915407
-0.056583855008
-0.0167723743221
-0.0488417792625
0.00524980519361
0.00326594458531
0.00548104743947
0.00642116314965
0.00455101031511
0.00643331564703
-0.0125398628208
-0.000698065769945
0.00488812833776
-0.00147999027755
0.00637551635698
0.00519023572693
-0.0137091964525
-0.00227683705921
-0.0292376805345
0.00418226766041
-0.00065379349136
-0.0006208917005
-0.000646242267876
-0.000234762506124
0.00097197089288
-0.000136590568171
0.00472492923885
0.00242181635227
0.000772377565891
0.00270602668085
-0.000320400736599
0.000582897928595
0.00499749182701
0.0029880548205
0.00629501429395
0.00117993903519
1.69499417128e-05
5.64707531046e-05
4.87577556364e-06
-0.000109423155288
-0.000333403968946
-0.000140213152578
-0.000640083994977
-0.000492813777728
-0.000288524247153
-0.000539004261467
-8.15141344776e-05
-0.000245053805063
-0.000651639853283
-0.000581952502111
-0.000392794176323
-0.000379043715543
6.87883629951e-06
-8.68252609941e-07
9.6932753259e-06
2.44263218353e-05
4.67591421887e-05
2.95686400662e-05
3.31815115668e-05
5.05276108216e-05
4.10196713835e-05
5.37541501689e-05
1.97013942935e-05
3.52612770644e-05
2.63562686476e-05
5.58081959194e-05
-5.67404532681e-05
5.23054640523e-05
-1.17962495793e-06
-4.28307564311e-07
-1.55997639398e-06
-2.59070168604e-06
-3.55325922041e-06
-3.12871197862e-06
2.69333295121e-06
-2.29620830796e-06
-3.16388820252e-06
-2.08518448202e-06
-2.08570753829e-06
-2.72329867299e-06
4.55113582079e-06
-1.62406025452e-06
1.54593850525e-05
-3.85724071914e-06
8.20562200305e-08
4.78993699566e-08
1.15571987833e-07
1.3748200738e-07
9.1675096565e-08
1.70299873107e-07
-6.01653399922e-07
-7.02977719252e-08
9.38059440315e-08
-1.50497092537e-07
1.04204415293e-07
8.37814900179e-08
-8.6074809225e-07
-2.67674518558e-07
-1.6267697497e-06
7.22979679727e-08
0.0
0.0
-1.91390466605e-09
-1.11328527457e-09
4.63711926765e-09
-1.7082556264e-09
3.0922698368e-08
6.31636226973e-09
1.45395939664e-09
1.59422322584e-08
0.0
0.0
5.38187783865e-08
2.95793858484e-08
7.25927543984e-08
1.01453126734e-08
-0.0547410989048
-0.0463250432076
-0.0212127971238
-0.0472693081733
-0.0195406030332
0.0275096055901
0.0977556094543
0.0253351786055
-0.0226103600458
0.0936418708939
0.0235304322809
0.0954920415998
0.189502478049
0.191099902106
0.306148809661
0.575095030289
0.437540231019
0.306924117618
0.437022457401
0.192870146127
0.307497628096
0.105446759894
0.194761250642
0.100788596264
0.0301363456396
-0.0111978884753
-0.0242489453976
-0.0380023398063
-0.023652226195
-0.0384786312673
-0.0501006685758
-0.0552548978144
-0.0498632623862
-0.0374946309811
-0.0554236573943
-0.0495773719959
-0.0553669855133
-0.0491743939863
-0.0486387778987
-0.0248651983767
0.0219815350561
-0.0238082425678
-0.048017812625
-0.0550608531663
-0.0502684081316
0.00616426365471
0.00652923031595
0.00456810999452
0.00659220600206
0.00433684492569
-0.00102465587483
-0.0100873366786
-0.000622246090262
0.00478323138066
-0.00898592050294
-0.000228978543326
-0.009536517439
-0.0218108009082
-0.0224336058277
-0.0364088930403
-0.0492558936639
-0.0369621648645
-0.023047270133
-0.0106401817595
-0.00143922694253
-0.000385110962529
0.000682588326712
0.00227207321594
0.000594568958794
0.00238908259639
0.00432868181345
0.00603653807768
0.00420209302959
0.00214559084653
0.00585284789362
0.00406500257807
0.00595050530177
0.00668527092421
0.00666792244373
0.00517501941134
0.000156976016136
0.00498498161213
0.00663748875442
0.00610885902695
0.00444130445266