# vtk DataFile Version 2.0
Packing Fraction Fields
ASCII
DATASET UNSTRUCTURED_GRID
POINTS 1089 double
1.0 0.875 0.0
1.0 0.9375 0.0
0.9375 0.9375 0.0
0.9375 0.875 0.0
0.875 0.875 0.0
0.875 0.9375 0.0
0.875 1.0 0.0
0.9375 1.0 0.0
1.0 1.0 0.0
1.0 0.75 0.0
1.0 0.8125 0.0
0.9375 0.8125 0.0
0.9375 0.75 0.0
0.875 0.75 0.0
0.875 0.8125 0.0
1.0 0.625 0.0
1.0 0.6875 0.0
0.9375 0.6875 0.0
0.9375 0.625 0.0
0.875 0.625 0.0
0.875 0.6875 0.0
1.0 0.5 0.0
1.0 0.5625 0.0
0.9375 0.5625 0.0
0.9375 0.5 0.0
0.875 0.5 0.0
0.875 0.5625 0.0
1.0 0.375 0.0
1.0 0.4375 0.0
0.9375 0.4375 0.0
0.9375 0.375 0.0
0.875 0.375 0.0
0.875 0.4375 0.0
1.0 0.25 0.0
1.0 0.3125 0.0
0.9375 0.3125 0.0
0.9375 0.25 0.0
0.875 0.25 0.0
0.875 0.3125 0.0
1.0 0.125 0.0
1.0 0.1875 0.0
0.9375 0.1875 0.0
0.9375 0.125 0.0
0.875 0.125 0.0
0.875 0.1875 0.0
1.0 0.0 0.0
1.0 0.0625 0.0
0.9375 0.0625 0.0
0.9375 0.0 0.0
0.875 0.0 0.0
0.875 0.0625 0.0
1.0 -0.125 0.0
1.0 -0.0625 0.0
0.9375 -0.0625 0.0
0.9375 -0.125 0.0
0.875 -0.125 0.0
0.875 -0.0625 0.0
1.0 -0.25 0.0
1.0 -0.1875 0.0
0.9375 -0.1875 0.0
0.9375 -0.25 0.0
0.875 -0.25 0.0
0.875 -0.1875 0.0
1.0 -0.375 0.0
1.0 -0.3125 0.0
0.9375 -0.3125 0.0
0.9375 -0.375 0.0
0.875 -0.375 0.0
0.875 -0.3125 0.0
1.0 -0.5 0.0
1.0 -0.4375 0.0
0.9375 -0.4375 0.0
0.9375 -0.5 0.0
0.875 -0.5 0.0
0.875 -0.4375 0.0
1.0 -0.625 0.0
1.0 -0.5625 0.0
0.9375 -0.5625 0.0
0.9375 -0.625 0.0
0.875 -0.625 0.0
0.875 -0.5625 0.0
1.0 -0.75 0.0
1.0 -0.6875 0.0
0.9375 -0.6875 0.0
0.9375 -0.75 0.0
0.875 -0.75 0.0
0.875 -0.6875 0.0
1.0 -0.875 0.0
1.0 -0.8125 0.0
0.9375 -0.8125 0.0
0.9375 -0.875 0.0
0.875 -0.875 0.0
0.875 -0.8125 0.0
1.0 -1.0 0.0
1.0 -0.9375 0.0
0.9375 -0.9375 0.0
0.9375 -1.0 0.0
0.875 -1.0 0.0
0.875 -0.9375 0.0
0.8125 0.9375 0.0
0.8125 0.875 0.0
0.75 0.875 0.0
0.75 0.9375 0.0
0.75 1.0 0.0
0.8125 1.0 0.0
0.8125 0.8125 0.0
0.8125 0.75 0.0
0.75 0.75 0.0
0.75 0.8125 0.0
0.8125 0.6875 0.0
0.8125 0.625 0.0
0.75 0.625 0.0
0.75 0.6875 0.0
0.8125 0.5625 0.0
0.8125 0.5 0.0
0.75 0.5 0.0
0.75 0.5625 0.0
0.8125 0.4375 0.0
0.8125 0.375 0.0
0.75 0.375 0.0
0.75 0.4375 0.0
0.8125 0.3125 0.0
0.8125 0.25 0.0
0.75 0.25 0.0
0.75 0.3125 0.0
0.8125 0.1875 0.0
0.8125 0.125 0.0
0.75 0.125 0.0
0.75 0.1875 0.0
0.8125 0.0625 0.0
0.8125 0.0 0.0
0.75 0.0 0.0
0.75 0.0625 0.0
0.8125 -0.0625 0.0
0.8125 -0.125 0.0
0.75 -0.125 0.0
0.75 -0.0625 0.0
0.8125 -0.1875 0.0
0.8125 -0.25 0.0
0.75 -0.25 0.0
0.75 -0.1875 0.0
0.8125 -0.3125 0.0
0.8125 -0.375 0.0
0.75 -0.375 0.0
0.75 -0.3125 0.0
0.8125 -0.4375 0.0
0.8125 -0.5 0.0
0.75 -0.5 0.0
0.75 -0.4375 0.0
0.8125 -0.5625 0.0
0.8125 -0.625 0.0
0.75 -0.625 0.0
0.75 -0.5625 0.0
0.8125 -0.6875 0.0
0.8125 -0.75 0.0
0.75 -0.75 0.0
0.75 -0.6875 0.0
0.8125 -0.8125 0.0
0.8125 -0.875 0.0
0.75 -0.875 0.0
0.75 -0.8125 0.0
0.8125 -0.9375 0.0
0.8125 -1.0 0.0
0.75 -1.0 0.0
0.75 -0.9375 0.0
0.6875 0.9375 0.0
0.6875 0.875 0.0
0.625 0.875 0.0
0.625 0.9375 0.0
0.625 1.0 0.0
0.6875 1.0 0.0
0.6875 0.8125 0.0
0.6875 0.75 0.0
0.625 0.75 0.0
0.625 0.8125 0.0
0.6875 0.6875 0.0
0.6875 0.625 0.0
0.625 0.625 0.0
0.625 0.6875 0.0
0.6875 0.5625 0.0
0.6875 0.5 0.0
0.625 0.5 0.0
0.625 0.5625 0.0
0.6875 0.4375 0.0
0.6875 0.375 0.0
0.625 0.375 0.0
0.625 0.4375 0.0
0.6875 0.3125 0.0
0.6875 0.25 0.0
0.625 0.25 0.0
0.625 0.3125 0.0
0.6875 0.1875 0.0
0.6875 0.125 0.0
0.625 0.125 0.0
0.625 0.1875 0.0
0.6875 0.0625 0.0
0.6875 0.0 0.0
0.625 0.0 0.0
0.625 0.0625 0.0
0.6875 -0.0625 0.0
0.6875 -0.125 0.0
0.625 -0.125 0.0
0.625 -0.0625 0.0
0.6875 -0.1875 0.0
0.6875 -0.25 0.0
0.625 -0.25 0.0
0.625 -0.1875 0.0
0.6875 -0.3125 0.0
0.6875 -0.375 0.0
0.625 -0.375 0.0
0.625 -0.3125 0.0
0.6875 -0.4375 0.0
0.6875 -0.5 0.0
0.625 -0.5 0.0
0.625 -0.4375 0.0
0.6875 -0.5625 0.0
0.6875 -0.625 0.0
0.625 -0.625 0.0
0.625 -0.5625 0.0
0.6875 -0.6875 0.0
0.6875 -0.75 0.0
0.625 -0.75 0.0
0.625 -0.6875 0.0
0.6875 -0.8125 0.0
0.6875 -0.875 0.0
0.625 -0.875 0.0
0.625 -0.8125 0.0
0.6875 -0.9375 0.0
0.6875 -1.0 0.0
0.625 -1.0 0.0
0.625 -0.9375 0.0
0.5625 0.9375 0.0
0.5625 0.875 0.0
0.5 0.875 0.0
0.5 0.9375 0.0
0.5 1.0 0.0
0.5625 1.0 0.0
0.5625 0.8125 0.0
0.5625 0.75 0.0
0.5 0.75 0.0
0.5 0.8125 0.0
0.5625 0.6875 0.0
0.5625 0.625 0.0
0.5 0.625 0.0
0.5 0.6875 0.0
0.5625 0.5625 0.0
0.5625 0.5 0.0
0.5 0.5 0.0
0.5 0.5625 0.0
0.5625 0.4375 0.0
0.5625 0.375 0.0
0.5 0.375 0.0
0.5 0.4375 0.0
0.5625 0.3125 0.0
0.5625 0.25 0.0
0.5 0.25 0.0
0.5 0.3125 0.0
0.5625 0.1875 0.0
0.5625 0.125 0.0
0.5 0.125 0.0
0.5 0.1875 0.0
0.5625 0.0625 0.0
0.5625 0.0 0.0
0.5 0.0 0.0
0.5 0.0625 0.0
0.5625 -0.0625 0.0
0.5625 -0.125 0.0
0.5 -0.125 0.0
0.5 -0.0625 0.0
0.5625 -0.1875 0.0
0.5625 -0.25 0.0
0.5 -0.25 0.0
0.5 -0.1875 0.0
0.5625 -0.3125 0.0
0.5625 -0.375 0.0
0.5 -0.375 0.0
0.5 -0.3125 0.0
0.5625 -0.4375 0.0
0.5625 -0.5 0.0
0.5 -0.5 0.0
0.5 -0.4375 0.0
0.5625 -0.5625 0.0
0.5625 -0.625 0.0
0.5 -0.625 0.0
0.5 -0.5625 0.0
0.5625 -0.6875 0.0
0.5625 -0.75 0.0
0.5 -0.75 0.0
0.5 -0.6875 0.0
0.5625 -0.8125 0.0
0.5625 -0.875 0.0
0.5 -0.875 0.0
0.5 -0.8125 0.0
0.5625 -0.9375 0.0
0.5625 -1.0 0.0
0.5 -1.0 0.0
0.5 -0.9375 0.0
-0.875 -0.875 0.0
-0.9375 -0.875 0.0
-0.9375 -0.9375 0.0
-0.875 -0.9375 0.0
-1.0 -0.875 0.0
-1.0 -0.9375 0.0
-1.0 -1.0 0.0
-0.9375 -1.0 0.0
-0.875 -1.0 0.0
-0.875 -0.75 0.0
-0.9375 -0.75 0.0
-0.9375 -0.8125 0.0
-0.875 -0.8125 0.0
-1.0 -0.75 0.0
-1.0 -0.8125 0.0
-0.875 -0.625 0.0
-0.9375 -0.625 0.0
-0.9375 -0.6875 0.0
-0.875 -0.6875 0.0
-1.0 -0.625 0.0
-1.0 -0.6875 0.0
-0.875 -0.5 0.0
-0.9375 -0.5 0.0
-0.9375 -0.5625 0.0
-0.875 -0.5625 0.0
-1.0 -0.5 0.0
-1.0 -0.5625 0.0
-0.875 -0.375 0.0
-0.9375 -0.375 0.0
-0.9375 -0.4375 0.0
-0.875 -0.4375 0.0
-1.0 -0.375 0.0
-1.0 -0.4375 0.0
-0.875 -0.25 0.0
-0.9375 -0.25 0.0
-0.9375 -0.3125 0.0
-0.875 -0.3125 0.0
-1.0 -0.25 0.0
-1.0 -0.3125 0.0
-0.875 -0.125 0.0
-0.9375 -0.125 0.0
-0.9375 -0.1875 0.0
-0.875 -0.1875 0.0
-1.0 -0.125 0.0
-1.0 -0.1875 0.0
-0.875 0.0 0.0
-0.9375 0.0 0.0
-0.9375 -0.0625 0.0
-0.875 -0.0625 0.0
-1.0 0.0 0.0
-1.0 -0.0625 0.0
-0.875 0.125 0.0
-0.9375 0.125 0.0
-0.9375 0.0625 0.0
-0.875 0.0625 0.0
-1.0 0.125 0.0
-1.0 0.0625 0.0
-0.875 0.25 0.0
-0.9375 0.25 0.0
-0.9375 0.1875 0.0
-0.875 0.1875 0.0
-1.0 0.25 0.0
-1.0 0.1875 0.0
-0.875 0.375 0.0
-0.9375 0.375 0.0
-0.9375 0.3125 0.0
-0.875 0.3125 0.0
-1.0 0.375 0.0
-1.0 0.3125 0.0
-0.875 0.5 0.0
-0.9375 0.5 0.0
-0.9375 0.4375 0.0
-0.875 0.4375 0.0
-1.0 0.5 0.0
-1.0 0.4375 0.0
-0.875 0.625 0.0
-0.9375 0.625 0.0
-0.9375 0.5625 0.0
-0.875 0.5625 0.0
-1.0 0.625 0.0
-1.0 0.5625 0.0
-0.875 0.75 0.0
-0.9375 0.75 0.0
-0.9375 0.6875 0.0
-0.875 0.6875 0.0
-1.0 0.75 0.0
-1.0 0.6875 0.0
-0.875 0.875 0.0
-0.9375 0.875 0.0
-0.9375 0.8125 0.0
-0.875 0.8125 0.0
-1.0 0.875 0.0
-1.0 0.8125 0.0
-0.875 1.0 0.0
-0.9375 1.0 0.0
-0.9375 0.9375 0.0
-0.875 0.9375 0.0
-1.0 1.0 0.0
-1.0 0.9375 0.0
-0.75 -0.875 0.0
-0.8125 -0.875 0.0
-0.8125 -0.9375 0.0
-0.75 -0.9375 0.0
-0.8125 -1.0 0.0
-0.75 -1.0 0.0
-0.75 -0.75 0.0
-0.8125 -0.75 0.0
-0.8125 -0.8125 0.0
-0.75 -0.8125 0.0
-0.75 -0.625 0.0
-0.8125 -0.625 0.0
-0.8125 -0.6875 0.0
-0.75 -0.6875 0.0
-0.75 -0.5 0.0
-0.8125 -0.5 0.0
-0.8125 -0.5625 0.0
-0.75 -0.5625 0.0
-0.75 -0.375 0.0
-0.8125 -0.375 0.0
-0.8125 -0.4375 0.0
-0.75 -0.4375 0.0
-0.75 -0.25 0.0
-0.8125 -0.25 0.0
-0.8125 -0.3125 0.0
-0.75 -0.3125 0.0
-0.75 -0.125 0.0
-0.8125 -0.125 0.0
-0.8125 -0.1875 0.0
-0.75 -0.1875 0.0
-0.75 0.0 0.0
-0.8125 0.0 0.0
-0.8125 -0.0625 0.0
-0.75 -0.0625 0.0
-0.75 0.125 0.0
-0.8125 0.125 0.0
-0.8125 0.0625 0.0
-0.75 0.0625 0.0
-0.75 0.25 0.0
-0.8125 0.25 0.0
-0.8125 0.1875 0.0
-0.75 0.1875 0.0
-0.75 0.375 0.0
-0.8125 0.375 0.0
-0.8125 0.3125 0.0
-0.75 0.3125 0.0
-0.75 0.5 0.0
-0.8125 0.5 0.0
-0.8125 0.4375 0.0
-0.75 0.4375 0.0
-0.75 0.625 0.0
-0.8125 0.625 0.0
-0.8125 0.5625 0.0
-0.75 0.5625 0.0
-0.75 0.75 0.0
-0.8125 0.75 0.0
-0.8125 0.6875 0.0
-0.75 0.6875 0.0
-0.75 0.875 0.0
-0.8125 0.875 0.0
-0.8125 0.8125 0.0
-0.75 0.8125 0.0
-0.75 1.0 0.0
-0.8125 1.0 0.0
-0.8125 0.9375 0.0
-0.75 0.9375 0.0
-0.625 -0.875 0.0
-0.6875 -0.875 0.0
-0.6875 -0.9375 0.0
-0.625 -0.9375 0.0
-0.6875 -1.0 0.0
-0.625 -1.0 0.0
-0.625 -0.75 0.0
-0.6875 -0.75 0.0
-0.6875 -0.8125 0.0
-0.625 -0.8125 0.0
-0.625 -0.625 0.0
-0.6875 -0.625 0.0
-0.6875 -0.6875 0.0
-0.625 -0.6875 0.0
-0.625 -0.5 0.0
-0.6875 -0.5 0.0
-0.6875 -0.5625 0.0
-0.625 -0.5625 0.0
-0.625 -0.375 0.0
-0.6875 -0.375 0.0
-0.6875 -0.4375 0.0
-0.625 -0.4375 0.0
-0.625 -0.25 0.0
-0.6875 -0.25 0.0
-0.6875 -0.3125 0.0
-0.625 -0.3125 0.0
-0.625 -0.125 0.0
-0.6875 -0.125 0.0
-0.6875 -0.1875 0.0
-0.625 -0.1875 0.0
-0.625 0.0 0.0
-0.6875 0.0 0.0
-0.6875 -0.0625 0.0
-0.625 -0.0625 0.0
-0.625 0.125 0.0
-0.6875 0.125 0.0
-0.6875 0.0625 0.0
-0.625 0.0625 0.0
-0.625 0.25 0.0
-0.6875 0.25 0.0
-0.6875 0.1875 0.0
-0.625 0.1875 0.0
-0.625 0.375 0.0
-0.6875 0.375 0.0
-0.6875 0.3125 0.0
-0.625 0.3125 0.0
-0.625 0.5 0.0
-0.6875 0.5 0.0
-0.6875 0.4375 0.0
-0.625 0.4375 0.0
-0.625 0.625 0.0
-0.6875 0.625 0.0
-0.6875 0.5625 0.0
-0.625 0.5625 0.0
-0.625 0.75 0.0
-0.6875 0.75 0.0
-0.6875 0.6875 0.0
-0.625 0.6875 0.0
-0.625 0.875 0.0
-0.6875 0.875 0.0
-0.6875 0.8125 0.0
-0.625 0.8125 0.0
-0.625 1.0 0.0
-0.6875 1.0 0.0
-0.6875 0.9375 0.0
-0.625 0.9375 0.0
-0.5 -0.875 0.0
-0.5625 -0.875 0.0
-0.5625 -0.9375 0.0
-0.5 -0.9375 0.0
-0.5625 -1.0 0.0
-0.5 -1.0 0.0
-0.5 -0.75 0.0
-0.5625 -0.75 0.0
-0.5625 -0.8125 0.0
-0.5 -0.8125 0.0
-0.5 -0.625 0.0
-0.5625 -0.625 0.0
-0.5625 -0.6875 0.0
-0.5 -0.6875 0.0
-0.5 -0.5 0.0
-0.5625 -0.5 0.0
-0.5625 -0.5625 0.0
-0.5 -0.5625 0.0
-0.5 -0.375 0.0
-0.5625 -0.375 0.0
-0.5625 -0.4375 0.0
-0.5 -0.4375 0.0
-0.5 -0.25 0.0
-0.5625 -0.25 0.0
-0.5625 -0.3125 0.0
-0.5 -0.3125 0.0
-0.5 -0.125 0.0
-0.5625 -0.125 0.0
-0.5625 -0.1875 0.0
-0.5 -0.1875 0.0
-0.5 0.0 0.0
-0.5625 0.0 0.0
-0.5625 -0.0625 0.0
-0.5 -0.0625 0.0
-0.5 0.125 0.0
-0.5625 0.125 0.0
-0.5625 0.0625 0.0
-0.5 0.0625 0.0
-0.5 0.25 0.0
-0.5625 0.25 0.0
-0.5625 0.1875 0.0
-0.5 0.1875 0.0
-0.5 0.375 0.0
-0.5625 0.375 0.0
-0.5625 0.3125 0.0
-0.5 0.3125 0.0
-0.5 0.5 0.0
-0.5625 0.5 0.0
-0.5625 0.4375 0.0
-0.5 0.4375 0.0
-0.5 0.625 0.0
-0.5625 0.625 0.0
-0.5625 0.5625 0.0
-0.5 0.5625 0.0
-0.5 0.75 0.0
-0.5625 0.75 0.0
-0.5625 0.6875 0.0
-0.5 0.6875 0.0
-0.5 0.875 0.0
-0.5625 0.875 0.0
-0.5625 0.8125 0.0
-0.5 0.8125 0.0
-0.5 1.0 0.0
-0.5625 1.0 0.0
-0.5625 0.9375 0.0
-0.5 0.9375 0.0
-0.375 -0.875 0.0
-0.4375 -0.875 0.0
-0.4375 -0.9375 0.0
-0.375 -0.9375 0.0
-0.4375 -1.0 0.0
-0.375 -1.0 0.0
-0.375 -0.75 0.0
-0.4375 -0.75 0.0
-0.4375 -0.8125 0.0
-0.375 -0.8125 0.0
-0.375 -0.625 0.0
-0.4375 -0.625 0.0
-0.4375 -0.6875 0.0
-0.375 -0.6875 0.0
-0.375 -0.5 0.0
-0.4375 -0.5 0.0
-0.4375 -0.5625 0.0
-0.375 -0.5625 0.0
-0.375 -0.375 0.0
-0.4375 -0.375 0.0
-0.4375 -0.4375 0.0
-0.375 -0.4375 0.0
-0.375 -0.25 0.0
-0.4375 -0.25 0.0
-0.4375 -0.3125 0.0
-0.375 -0.3125 0.0
-0.375 -0.125 0.0
-0.4375 -0.125 0.0
-0.4375 -0.1875 0.0
-0.375 -0.1875 0.0
-0.375 0.0 0.0
-0.4375 0.0 0.0
-0.4375 -0.0625 0.0
-0.375 -0.0625 0.0
-0.375 0.125 0.0
-0.4375 0.125 0.0
-0.4375 0.0625 0.0
-0.375 0.0625 0.0
-0.375 0.25 0.0
-0.4375 0.25 0.0
-0.4375 0.1875 0.0
-0.375 0.1875 0.0
-0.375 0.375 0.0
-0.4375 0.375 0.0
-0.4375 0.3125 0.0
-0.375 0.3125 0.0
-0.375 0.5 0.0
-0.4375 0.5 0.0
-0.4375 0.4375 0.0
-0.375 0.4375 0.0
-0.375 0.625 0.0
-0.4375 0.625 0.0
-0.4375 0.5625 0.0
-0.375 0.5625 0.0
-0.375 0.75 0.0
-0.4375 0.75 0.0
-0.4375 0.6875 0.0
-0.375 0.6875 0.0
-0.375 0.875 0.0
-0.4375 0.875 0.0
-0.4375 0.8125 0.0
-0.375 0.8125 0.0
-0.375 1.0 0.0
-0.4375 1.0 0.0
-0.4375 0.9375 0.0
-0.375 0.9375 0.0
-0.25 -0.875 0.0
-0.3125 -0.875 0.0
-0.3125 -0.9375 0.0
-0.25 -0.9375 0.0
-0.3125 -1.0 0.0
-0.25 -1.0 0.0
-0.25 -0.75 0.0
-0.3125 -0.75 0.0
-0.3125 -0.8125 0.0
-0.25 -0.8125 0.0
-0.25 -0.625 0.0
-0.3125 -0.625 0.0
-0.3125 -0.6875 0.0
-0.25 -0.6875 0.0
-0.25 -0.5 0.0
-0.3125 -0.5 0.0
-0.3125 -0.5625 0.0
-0.25 -0.5625 0.0
-0.25 -0.375 0.0
-0.3125 -0.375 0.0
-0.3125 -0.4375 0.0
-0.25 -0.4375 0.0
-0.25 -0.25 0.0
-0.3125 -0.25 0.0
-0.3125 -0.3125 0.0
-0.25 -0.3125 0.0
-0.25 -0.125 0.0
-0.3125 -0.125 0.0
-0.3125 -0.1875 0.0
-0.25 -0.1875 0.0
-0.25 0.0 0.0
-0.3125 0.0 0.0
-0.3125 -0.0625 0.0
-0.25 -0.0625 0.0
-0.25 0.125 0.0
-0.3125 0.125 0.0
-0.3125 0.0625 0.0
-0.25 0.0625 0.0
-0.25 0.25 0.0
-0.3125 0.25 0.0
-0.3125 0.1875 0.0
-0.25 0.1875 0.0
-0.25 0.375 0.0
-0.3125 0.375 0.0
-0.3125 0.3125 0.0
-0.25 0.3125 0.0
-0.25 0.5 0.0
-0.3125 0.5 0.0
-0.3125 0.4375 0.0
-0.25 0.4375 0.0
-0.25 0.625 0.0
-0.3125 0.625 0.0
-0.3125 0.5625 0.0
-0.25 0.5625 0.0
-0.25 0.75 0.0
-0.3125 0.75 0.0
-0.3125 0.6875 0.0
-0.25 0.6875 0.0
-0.25 0.875 0.0
-0.3125 0.875 0.0
-0.3125 0.8125 0.0
-0.25 0.8125 0.0
-0.25 1.0 0.0
-0.3125 1.0 0.0
-0.3125 0.9375 0.0
-0.25 0.9375 0.0
-0.125 -0.875 0.0
-0.1875 -0.875 0.0
-0.1875 -0.9375 0.0
-0.125 -0.9375 0.0
-0.1875 -1.0 0.0
-0.125 -1.0 0.0
-0.125 -0.75 0.0
-0.1875 -0.75 0.0
-0.1875 -0.8125 0.0
-0.125 -0.8125 0.0
-0.125 -0.625 0.0
-0.1875 -0.625 0.0
-0.1875 -0.6875 0.0
-0.125 -0.6875 0.0
-0.125 -0.5 0.0
-0.1875 -0.5 0.0
-0.1875 -0.5625 0.0
-0.125 -0.5625 0.0
-0.125 -0.375 0.0
-0.1875 -0.375 0.0
-0.1875 -0.4375 0.0
-0.125 -0.4375 0.0
-0.125 -0.25 0.0
-0.1875 -0.25 0.0
-0.1875 -0.3125 0.0
-0.125 -0.3125 0.0
-0.125 -0.125 0.0
-0.1875 -0.125 0.0
-0.1875 -0.1875 0.0
-0.125 -0.1875 0.0
-0.125 0.0 0.0
-0.1875 0.0 0.0
-0.1875 -0.0625 0.0
-0.125 -0.0625 0.0
-0.125 0.125 0.0
-0.1875 0.125 0.0
-0.1875 0.0625 0.0
-0.125 0.0625 0.0
-0.125 0.25 0.0
-0.1875 0.25 0.0
-0.1875 0.1875 0.0
-0.125 0.1875 0.0
-0.125 0.375 0.0
-0.1875 0.375 0.0
-0.1875 0.3125 0.0
-0.125 0.3125 0.0
-0.125 0.5 0.0
-0.1875 0.5 0.0
-0.1875 0.4375 0.0
-0.125 0.4375 0.0
-0.125 0.625 0.0
-0.1875 0.625 0.0
-0.1875 0.5625 0.0
-0.125 0.5625 0.0
-0.125 0.75 0.0
-0.1875 0.75 0.0
-0.1875 0.6875 0.0
-0.125 0.6875 0.0
-0.125 0.875 0.0
-0.1875 0.875 0.0
-0.1875 0.8125 0.0
-0.125 0.8125 0.0
-0.125 1.0 0.0
-0.1875 1.0 0.0
-0.1875 0.9375 0.0
-0.125 0.9375 0.0
1.2300766466e-17 -0.875 0.0
-0.0625 -0.875 0.0
-0.0625 -0.9375 0.0
6.93889390391e-18 -0.9375 0.0
-0.0625 -1.0 0.0
0.0 -1.0 0.0
1.41931920762e-17 -0.75 0.0
-0.0625 -0.75 0.0
-0.0625 -0.8125 0.0
1.56125112838e-17 -0.8125 0.0
1.41931920762e-17 -0.625 0.0
-0.0625 -0.625 0.0
-0.0625 -0.6875 0.0
1.56125112838e-17 -0.6875 0.0
1.41931920762e-17 -0.5 0.0
-0.0625 -0.5 0.0
-0.0625 -0.5625 0.0
1.56125112838e-17 -0.5625 0.0
1.76626390281e-17 -0.375 0.0
-0.0625 -0.375 0.0
-0.0625 -0.4375 0.0
1.56125112838e-17 -0.4375 0.0
1.76626390281e-17 -0.25 0.0
-0.0625 -0.25 0.0
-0.0625 -0.3125 0.0
1.90819582357e-17 -0.3125 0.0
1.41931920762e-17 -0.125 0.0
-0.0625 -0.125 0.0
-0.0625 -0.1875 0.0
1.90819582357e-17 -0.1875 0.0
3.78485122031e-18 0.0 0.0
-0.0625 0.0 0.0
-0.0625 -0.0625 0.0
1.21430643318e-17 -0.0625 0.0
1.41931920762e-17 0.125 0.0
-0.0625 0.125 0.0
-0.0625 0.0625 0.0
1.38777878078e-17 0.0625 0.0
1.76626390281e-17 0.25 0.0
-0.0625 0.25 0.0
-0.0625 0.1875 0.0
1.90819582357e-17 0.1875 0.0
1.76626390281e-17 0.375 0.0
-0.0625 0.375 0.0
-0.0625 0.3125 0.0
1.90819582357e-17 0.3125 0.0
1.76626390281e-17 0.5 0.0
-0.0625 0.5 0.0
-0.0625 0.4375 0.0
1.90819582357e-17 0.4375 0.0
1.76626390281e-17 0.625 0.0
-0.0625 0.625 0.0
-0.0625 0.5625 0.0
1.90819582357e-17 0.5625 0.0
1.76626390281e-17 0.75 0.0
-0.0625 0.75 0.0
-0.0625 0.6875 0.0
1.90819582357e-17 0.6875 0.0
1.76626390281e-17 0.875 0.0
-0.0625 0.875 0.0
-0.0625 0.8125 0.0
1.90819582357e-17 0.8125 0.0
0.0 1.0 0.0
-0.0625 1.0 0.0
-0.0625 0.9375 0.0
8.67361737988e-18 0.9375 0.0
0.125 -0.875 0.0
0.0625 -0.875 0.0
0.0625 -0.9375 0.0
0.125 -0.9375 0.0
0.0625 -1.0 0.0
0.125 -1.0 0.0
0.125 -0.75 0.0
0.0625 -0.75 0.0
0.0625 -0.8125 0.0
0.125 -0.8125 0.0
0.125 -0.625 0.0
0.0625 -0.625 0.0
0.0625 -0.6875 0.0
0.125 -0.6875 0.0
0.125 -0.5 0.0
0.0625 -0.5 0.0
0.0625 -0.5625 0.0
0.125 -0.5625 0.0
0.125 -0.375 0.0
0.0625 -0.375 0.0
0.0625 -0.4375 0.0
0.125 -0.4375 0.0
0.125 -0.25 0.0
0.0625 -0.25 0.0
0.0625 -0.3125 0.0
0.125 -0.3125 0.0
0.125 -0.125 0.0
0.0625 -0.125 0.0
0.0625 -0.1875 0.0
0.125 -0.1875 0.0
0.125 0.0 0.0
0.0625 0.0 0.0
0.0625 -0.0625 0.0
0.125 -0.0625 0.0
0.125 0.125 0.0
0.0625 0.125 0.0
0.0625 0.0625 0.0
0.125 0.0625 0.0
0.125 0.25 0.0
0.0625 0.25 0.0
0.0625 0.1875 0.0
0.125 0.1875 0.0
0.125 0.375 0.0
0.0625 0.375 0.0
0.0625 0.3125 0.0
0.125 0.3125 0.0
0.125 0.5 0.0
0.0625 0.5 0.0
0.0625 0.4375 0.0
0.125 0.4375 0.0
0.125 0.625 0.0
0.0625 0.625 0.0
0.0625 0.5625 0.0
0.125 0.5625 0.0
0.125 0.75 0.0
0.0625 0.75 0.0
0.0625 0.6875 0.0
0.125 0.6875 0.0
0.125 0.875 0.0
0.0625 0.875 0.0
0.0625 0.8125 0.0
0.125 0.8125 0.0
0.125 1.0 0.0
0.0625 1.0 0.0
0.0625 0.9375 0.0
0.125 0.9375 0.0
0.25 -0.875 0.0
0.1875 -0.875 0.0
0.1875 -0.9375 0.0
0.25 -0.9375 0.0
0.1875 -1.0 0.0
0.25 -1.0 0.0
0.25 -0.75 0.0
0.1875 -0.75 0.0
0.1875 -0.8125 0.0
0.25 -0.8125 0.0
0.25 -0.625 0.0
0.1875 -0.625 0.0
0.1875 -0.6875 0.0
0.25 -0.6875 0.0
0.25 -0.5 0.0
0.1875 -0.5 0.0
0.1875 -0.5625 0.0
0.25 -0.5625 0.0
0.25 -0.375 0.0
0.1875 -0.375 0.0
0.1875 -0.4375 0.0
0.25 -0.4375 0.0
0.25 -0.25 0.0
0.1875 -0.25 0.0
0.1875 -0.3125 0.0
0.25 -0.3125 0.0
0.25 -0.125 0.0
0.1875 -0.125 0.0
0.1875 -0.1875 0.0
0.25 -0.1875 0.0
0.25 0.0 0.0
0.1875 0.0 0.0
0.1875 -0.0625 0.0
0.25 -0.0625 0.0
0.25 0.125 0.0
0.1875 0.125 0.0
0.1875 0.0625 0.0
0.25 0.0625 0.0
0.25 0.25 0.0
0.1875 0.25 0.0
0.1875 0.1875 0.0
0.25 0.1875 0.0
0.25 0.375 0.0
0.1875 0.375 0.0
0.1875 0.3125 0.0
0.25 0.3125 0.0
0.25 0.5 0.0
0.1875 0.5 0.0
0.1875 0.4375 0.0
0.25 0.4375 0.0
0.25 0.625 0.0
0.1875 0.625 0.0
0.1875 0.5625 0.0
0.25 0.5625 0.0
0.25 0.75 0.0
0.1875 0.75 0.0
0.1875 0.6875 0.0
0.25 0.6875 0.0
0.25 0.875 0.0
0.1875 0.875 0.0
0.1875 0.8125 0.0
0.25 0.8125 0.0
0.25 1.0 0.0
0.1875 1.0 0.0
0.1875 0.9375 0.0
0.25 0.9375 0.0
0.375 -0.875 0.0
0.3125 -0.875 0.0
0.3125 -0.9375 0.0
0.375 -0.9375 0.0
0.3125 -1.0 0.0
0.375 -1.0 0.0
0.375 -0.75 0.0
0.3125 -0.75 0.0
0.3125 -0.8125 0.0
0.375 -0.8125 0.0
0.375 -0.625 0.0
0.3125 -0.625 0.0
0.3125 -0.6875 0.0
0.375 -0.6875 0.0
0.375 -0.5 0.0
0.3125 -0.5 0.0
0.3125 -0.5625 0.0
0.375 -0.5625 0.0
0.375 -0.375 0.0
0.3125 -0.375 0.0
0.3125 -0.4375 0.0
0.375 -0.4375 0.0
0.375 -0.25 0.0
0.3125 -0.25 0.0
0.3125 -0.3125 0.0
0.375 -0.3125 0.0
0.375 -0.125 0.0
0.3125 -0.125 0.0
0.3125 -0.1875 0.0
0.375 -0.1875 0.0
0.375 0.0 0.0
0.3125 0.0 0.0
0.3125 -0.0625 0.0
0.375 -0.0625 0.0
0.375 0.125 0.0
0.3125 0.125 0.0
0.3125 0.0625 0.0
0.375 0.0625 0.0
0.375 0.25 0.0
0.3125 0.25 0.0
0.3125 0.1875 0.0
0.375 0.1875 0.0
0.375 0.375 0.0
0.3125 0.375 0.0
0.3125 0.3125 0.0
0.375 0.3125 0.0
0.375 0.5 0.0
0.3125 0.5 0.0
0.3125 0.4375 0.0
0.375 0.4375 0.0
0.375 0.625 0.0
0.3125 0.625 0.0
0.3125 0.5625 0.0
0.375 0.5625 0.0
0.375 0.75 0.0
0.3125 0.75 0.0
0.3125 0.6875 0.0
0.375 0.6875 0.0
0.375 0.875 0.0
0.3125 0.875 0.0
0.3125 0.8125 0.0
0.375 0.8125 0.0
0.375 1.0 0.0
0.3125 1.0 0.0
0.3125 0.9375 0.0
0.375 0.9375 0.0
0.4375 -0.875 0.0
0.4375 -0.9375 0.0
0.4375 -1.0 0.0
0.4375 -0.75 0.0
0.4375 -0.8125 0.0
0.4375 -0.625 0.0
0.4375 -0.6875 0.0
0.4375 -0.5 0.0
0.4375 -0.5625 0.0
0.4375 -0.375 0.0
0.4375 -0.4375 0.0
0.4375 -0.25 0.0
0.4375 -0.3125 0.0
0.4375 -0.125 0.0
0.4375 -0.1875 0.0
0.4375 0.0 0.0
0.4375 -0.0625 0.0
0.4375 0.125 0.0
0.4375 0.0625 0.0
0.4375 0.25 0.0
0.4375 0.1875 0.0
0.4375 0.375 0.0
0.4375 0.3125 0.0
0.4375 0.5 0.0
0.4375 0.4375 0.0
0.4375 0.625 0.0
0.4375 0.5625 0.0
0.4375 0.75 0.0
0.4375 0.6875 0.0
0.4375 0.875 0.0
0.4375 0.8125 0.0
0.4375 1.0 0.0
0.4375 0.9375 0.0

POINT_DATA 1089
SCALARS Radiance double
LOOKUP_TABLE default
9.61915801417e-13
-1.79459683431e-13
-9.99854592103e-13
-2.3170722832e-12
-1.9874489689e-12
5.64260398808e-12
-9.00496687928e-13
1.11284498197e-12
-2.70754995972e-13
-1.52353346698e-12
6.79170616535e-13
1.66078110104e-12
6.29424365145e-12
-9.43265535576e-12
-1.43711672318e-11
-8.77027522564e-13
-2.92364454512e-12
3.87269727505e-12
-6.43889869862e-12
3.99102731204e-11
1.57189125148e-11
8.04080830383e-12
4.00315639358e-12
-1.68361372484e-11
-1.71730197711e-11
-1.63638951826e-12
3.76289703213e-11
-6.07506576477e-13
7.15354387289e-12
-2.03423088536e-12
2.61666771484e-11
-1.35536007353e-10
-6.80204770247e-11
-2.80953439646e-11
-1.39187294821e-11
5.74889524159e-11
7.60775850632e-11
-1.25584742265e-10
-1.67861997527e-10
-2.76860784797e-11
-3.5602842048e-11
6.33245450469e-11
4.6383769726e-12
2.60961833629e-10
1.93156861663e-11
5.25729698942e-11
2.04517631522e-12
-1.00150546008e-10
-2.27656917521e-10
7.49379036248e-10
5.40527069076e-10
1.56939668701e-10
1.11674059495e-10
-3.31141215819e-10
-3.55071200166e-10
5.11306925026e-10
7.65263947889e-10
1.14733624644e-10
1.63273266944e-10
-2.60564846904e-10
-4.92871269967e-11
-6.17478660012e-10
7.62758313905e-12
-1.1399120315e-10
1.42540654715e-11
2.29098612342e-10
4.90366320381e-10
-1.45969439054e-09
-1.16848799839e-09
-3.00421600661e-10
-2.30648058442e-10
6.48642568616e-10
6.54399287487e-10
-1.00588598251e-09
-1.3955032146e-09
-2.27937031329e-10
-2.98957001614e-10
5.03072844804e-10
2.60233848222e-10
1.16257741617e-10
-4.32773229962e-10
4.75344171642e-12
-1.26759171627e-10
7.28709202596e-12
-2.08118040913e-10
6.36494770968e-10
5.04144253798e-10
1.16630941166e-10
6.9809449401e-11
-2.49284531492e-10
-2.93617511229e-10
4.01325816883e-10
5.08637233852e-10
0.0
1.49299850981e-10
-1.82166851093e-10
0.0
0.0
3.01338794735e-11
-1.58135959933e-12
3.20169707955e-11
-5.89012227736e-11
-6.86437659513e-11
3.41394735875e-11
-1.12246668968e-11
2.2183181957e-11
-4.02138995564e-11
2.40975879606e-10
1.06422752747e-10
-9.5325885197e-11
-7.94271304856e-11
-1.16057433779e-10
1.72019754596e-10
2.39357886536e-11
1.80143025231e-10
-8.19665466936e-10
-5.05646772119e-10
3.22914691555e-10
3.70263754443e-10
-4.47492173243e-10
-8.6216966984e-10
2.39196087565e-10
-1.22915568848e-10
1.94714567312e-09
5.24698428882e-10
-6.88135153555e-10
-1.30805613284e-09
4.29469773067e-09
3.41744431258e-09
-1.72827669578e-09
-1.67885070275e-09
2.06321892802e-09
3.9416697084e-09
-1.0110403857e-09
1.93138832936e-10
-4.52727333029e-09
-1.04772936264e-09
1.61138090102e-09
2.79171289729e-09
-8.29339735766e-09
-7.25029674427e-09
3.33569275863e-09
3.06701960643e-09
-4.73615770619e-09
-7.3250353541e-09
2.10254331444e-09
7.96198886864e-10
1.42526379827e-09
-1.46182843537e-09
-4.1231806847e-10
-1.17812090454e-09
3.4633352566e-09
3.14187578204e-09
-1.3994527804e-09
-1.13355661788e-09
1.47811135529e-09
2.7316653074e-09
-6.54087369674e-10
-2.82134430296e-10
-2.45505289227e-10
4.15547678232e-10
2.36239986849e-10
0.0
0.0
-7.20428408799e-10
1.9206770727e-10
-2.9379126876e-10
1.97338596732e-09
7.95246986661e-10
-8.73226302218e-10
1.04698597306e-10
-6.58509837064e-10
-3.69777348732e-10
-2.29187646635e-09
6.86971768446e-10
5.09187883091e-10
1.54942356554e-09
-6.57357639854e-09
-5.23064119614e-09
2.2412810796e-09
2.08947030473e-09
3.50913791625e-10
-5.03908390087e-09
6.64528090283e-10
-2.19733874036e-09
2.11184678659e-08
9.66090275567e-09
-6.07225295463e-09
-9.75938900836e-09
3.34099465382e-08
3.07593619199e-08
-1.15103698104e-08
-9.7390991531e-09
4.99432323276e-09
2.49764531612e-08
-3.92028028844e-09
4.84549115793e-09
-4.81812960513e-08
-2.21212709978e-08
1.40203225653e-08
2.05786031466e-08
-6.52229698188e-08
-6.44174090814e-08
2.22739213775e-08
1.85947641673e-08
-2.58606865804e-08
-5.0554714578e-08
1.09546121302e-08
2.05806239785e-09
1.99548996718e-08
3.27302667167e-10
-5.24991929451e-09
-9.10888755368e-09
2.6335303756e-08
2.85262277491e-08
-9.21974028941e-09
-6.70820486969e-09
7.20444694255e-09
1.74576121505e-08
-3.28555952994e-09
-3.94575220774e-10
-4.00843998478e-09
-4.68507394483e-10
1.04281305048e-09
1.575257425e-09
-2.98313024777e-09
-4.12178123883e-09
1.15807276376e-09
0.0
0.0
-7.33094706499e-10
-6.75821173513e-09
-2.19387883066e-10
-6.02227163214e-08
-1.12138835037e-08
3.26330850238e-08
-1.22312742519e-09
1.11507139461e-08
1.94949631748e-08
-5.44595101073e-08
-7.74814086174e-08
2.01114806216e-08
9.91035475845e-09
1.23275611154e-07
1.26875903407e-08
-1.29635605532e-08
-4.68039203406e-08
3.80947131785e-07
2.60114321184e-07
-8.34752682994e-08
-1.08315091151e-07
3.37105203204e-07
4.25024225728e-07
-1.04736544906e-07
-6.24087032211e-08
-2.46496752422e-07
9.93944290512e-08
1.51295168868e-08
1.08416898861e-07
-8.55879972569e-07
-6.0401250673e-07
1.88084851513e-07
2.26772220414e-07
-7.56342150806e-07
-9.13502060207e-07
2.11021463463e-07
1.47074726972e-07
-7.55283050945e-08
-4.40888143136e-07
5.78871740172e-08
-2.68231759245e-08
3.84538058567e-07
2.25094310376e-07
-8.26483221274e-08
-9.92880434334e-08
2.81518135309e-07
3.88800139783e-07
-8.24017544114e-08
-4.82571943472e-08
1.34951344658e-08
1.34977144191e-07
-1.45528535396e-08
7.38413187067e-09
-6.28143332104e-08
-5.12853693135e-08
1.52435931865e-08
1.31276011579e-08
-1.95369316221e-08
-4.42707656689e-08
7.37827024012e-09
2.46547907438e-09
4.91075219769e-09
-2.64870219831e-09
-1.4068233065e-09
0.0
0.0
5.96785974784e-09
0.0105777464708
0.288419862206
-0.0665466868753
-0.0532948463181
1.0
0.0
0.0
0.0
0.0
0.706478009851
0.953644057749
0.784643345254
0.3442137477
1.0
1.0
0.986670672731
1.01413717669
0.997791641789
0.904501294789
1.0
1.0
0.974762654049
0.696898843095
1.0617182317
1.05272993607
0.0
1.0
0.257429558742
0.0272480037317
0.196834120176
0.627394793083
0.0
0.0
-0.012582148654
-0.0135027654506
-0.0134729297424
0.057844269154
0.0
0.0
-0.0127430675341
-0.00124356080214
-0.00624651437081
-0.021741826708
0.0
0.0
0.000506506114963
0.000874523484723
0.000687304808994
-0.00389730459657
0.0
0.0
0.00108994325877
0.000144840486323
0.000498507719898
0.00153004340245
0.0
0.0
1.55461273935e-05
-7.28331403712e-05
-3.28690475404e-05
0.000428537928014
0.0
0.0
-0.000111012204228
-2.0026901951e-05
-5.11314163296e-05
-0.000124142969817
0.0
0.0
-1.0096554501e-05
6.38383070021e-06
-3.8328816408e-07
-5.45272373866e-05
0.0
0.0
1.20191578765e-05
2.84292097625e-06
5.72576320237e-06
9.70940946062e-06
0.0
0.0
2.13452156652e-06
-5.61697735103e-07
5.06551647241e-07
7.22431975098e-06
0.0
0.0
-1.31830946905e-06
-3.46175761248e-07
-6.63016855905e-07
-6.90730162186e-07
0.0
0.0
-1.5019282104e-07
6.09106143068e-08
-3.98325477479e-08
-7.93866767761e-07
0.0
0.0
-0.0443063210335
-0.0550021642767
-0.0274148394827
-0.00931124866363
0.0
0.0
0.0979958521755
0.357423726963
0.0647256033452
-0.0408606173782
0.631719156386
0.865005028728
0.662761893353
0.359488139222
0.980161744267
1.03879790948
0.988909568261
0.841336628685
0.862284758231
0.600364762675
0.908835941318
1.0075078883
0.298212105861
0.0812734601389
0.283868802917
0.583768274813
0.000856041477608
-0.0257885685602
-0.00660251687346
0.0989535421386
-0.0224772151227
-0.00713656550914
-0.0182401942882
-0.0270881878714
-0.00176855363854
0.00184565838907
-0.000388296276115
-0.0104407138205
0.00210899001296
0.000802472247311
0.00165285367721
0.00181053813725
0.000348427682458
-0.000137536945493
0.000146895171538
0.00121458932841
-0.000210472215227
-9.93651266962e-05
-0.000167573777521
-0.000105310205092
-5.86431363993e-05
8.02654162638e-06
-2.98312952615e-05
-0.000148953198131
2.08762570033e-05
1.26465593991e-05
1.75041038006e-05
1.72477953309e-07
8.62232805006e-06
-2.04076475789e-07
4.91200092059e-06
1.83819871786e-05
-1.93679382539e-06
-1.21243229462e-06
-1.79638786317e-06
9.40776102357e-07
-0.00474121395593
-0.0206744404573
-0.000755268419957
0.0017258420377
0.0
0.0
-0.0512448546813
-0.0246579833677
-0.0508183452501
-0.0299146897286
0.132618365796
0.357117507841
0.119054901153
-0.010099540068
0.596183258591
0.823743092295
0.610736526946
0.354040664795
0.938303265438
0.973127756684
0.961758034956
0.807141954375
0.796820034652
0.570725112862
0.826508943308
0.939702628396
0.312291347099
0.112657026964
0.30686890203
0.559240761488
0.0157679805925
-0.0266723021858
0.00847147397213
0.123565623422
-0.0276597758534
-0.0135362823655
-0.0255527362194
-0.0251975416486
-0.00522772626059
0.00146780177154
-0.00343187738963
-0.0163029231329
0.00257301965387
0.00162145596708
0.0024194488182
0.000878476928938
0.000884928224439
-2.6833249791e-05
0.000601021719321
0.00199197709734
-0.00022887941953
-0.000197573208071
-0.000232349467249
9.40339400167e-05
-0.000134669660067
-1.41708305911e-05
-9.44701747708e-05
-0.000240210481284
1.75745482116e-05
2.3583444776e-05
2.11092237003e-05
-3.45557168424e-05
1.65579373701e-05
2.56480866649e-06
1.27801331701e-05
2.73509596622e-05
0.00278981281621
0.001815955799
0.00155892847413
0.000770791247911
0.0
0.0
-0.0151342629339
-0.0362789626283
-0.00996119633108
0.000528374044431
-0.0446939315397
0.00199324493328
-0.0486123525657
-0.0401840531241
0.148675921674
0.35161067187
0.141837880963
0.0118508559008
0.575163583614
0.790095953513
0.584949914442
0.349888386839
0.886880201969
0.908162444767
0.91281288189
0.772508492985
0.747546766428
0.548578339968
0.77089473034
0.878595632902
0.31759045106
0.132435683012
0.31564368095
0.538445117903
0.0289132253006
-0.0230748650213
0.0225897366582
0.13978145434
-0.0297254129455
-0.0187071145449
-0.028993449352
-0.0205626145602
-0.00885906761676
0.000101983315471
-0.00705581856466
-0.0207646966703
0.00243589078778
0.0023067240652
0.00257469425254
-0.000814533460099
0.00148330206818
0.000251543354572
0.00118319019321
0.00255511879466
-0.000139202702552
-0.000272884106825
-0.000198075392787
0.000440340256956
-0.000216613810815
-5.98450141058e-05
-0.000176389395625
-0.000292520273024
-8.12800110406e-07
2.87181017276e-05
1.01183105075e-05
-8.81038896061e-05
0.000593651059198
0.00174089552191
0.000175853307931
-8.57472256811e-05
0.0
0.0
0.0033724288118
-0.00160948316585
0.00339956577323
0.00265752249473
-0.0233799277471
-0.0422885922951
-0.0196670754196
-0.00413083867114
-0.0361315160194
0.0200024950291
-0.0404029657504
-0.0431615448808
0.158811257315
0.348531820568
0.154177570107
0.0269314763084
0.556558391369
0.754606254429
0.565859490559
0.347164616026
0.836482921174
0.850907204693
0.86130246016
0.736612053662
0.706538045446
0.528777631433
0.726171598212
0.825028234541
0.319166649664
0.146007217191
0.31860629943
0.519719519315
0.0403763466823
-0.0178156992766
0.0347917935964
0.151533691677
-0.0299215202216
-0.0225224136379
-0.029999114039
-0.0148899029069
-0.0123588895751
-0.00184452324257
-0.0106194450957
-0.0240476046096
0.00175424571081
0.0027308555607
0.00216489261498
-0.00299295121493
0.00206037793868
0.000657270226907
0.00177739564779
0.00282406607142
6.62434306132e-05
-0.000296406952616