# vtk DataFile Version 2.0
Packing Fraction Fields
ASCII
DATASET UNSTRUCTURED_GRID
POINTS 1089 double
1.0 0.875 0.0
1.0 0.9375 0.0
0.9375 0.9375 0.0
0.9375 0.875 0.0
0.875 0.875 0.0
0.875 0.9375 0.0
0.875 1.0 0.0
0.9375 1.0 0.0
1.0 1.0 0.0
1.0 0.75 0.0
1.0 0.8125 0.0
0.9375 0.8125 0.0
0.9375 0.75 0.0
0.875 0.75 0.0
0.875 0.8125 0.0
1.0 0.625 0.0
1.0 0.6875 0.0
0.9375 0.6875 0.0
0.9375 0.625 0.0
0.875 0.625 0.0
0.875 0.6875 0.0
1.0 0.5 0.0
1.0 0.5625 0.0
0.9375 0.5625 0.0
0.9375 0.5 0.0
0.875 0.5 0.0
0.875 0.5625 0.0
1.0 0.375 0.0
1.0 0.4375 0.0
0.9375 0.4375 0.0
0.9375 0.375 0.0
0.875 0.375 0.0
0.875 0.4375 0.0
1.0 0.25 0.0
1.0 0.3125 0.0
0.9375 0.3125 0.0
0.9375 0.25 0.0
0.875 0.25 0.0
0.875 0.3125 0.0
1.0 0.125 0.0
1.0 0.1875 0.0
0.9375 0.1875 0.0
0.9375 0.125 0.0
0.875 0.125 0.0
0.875 0.1875 0.0
1.0 0.0 0.0
1.0 0.0625 0.0
0.9375 0.0625 0.0
0.9375 0.0 0.0
0.875 0.0 0.0
0.875 0.0625 0.0
1.0 -0.125 0.0
1.0 -0.0625 0.0
0.9375 -0.0625 0.0
0.9375 -0.125 0.0
0.875 -0.125 0.0
0.875 -0.0625 0.0
1.0 -0.25 0.0
1.0 -0.1875 0.0
0.9375 -0.1875 0.0
0.9375 -0.25 0.0
0.875 -0.25 0.0
0.875 -0.1875 0.0
1.0 -0.375 0.0
1.0 -0.3125 0.0
0.9375 -0.3125 0.0
0.9375 -0.375 0.0
0.875 -0.375 0.0
0.875 -0.3125 0.0
1.0 -0.5 0.0
1.0 -0.4375 0.0
0.9375 -0.4375 0.0
0.9375 -0.5 0.0
0.875 -0.5 0.0
0.875 -0.4375 0.0
1.0 -0.625 0.0
1.0 -0.5625 0.0
0.9375 -0.5625 0.0
0.9375 -0.625 0.0
0.875 -0.625 0.0
0.875 -0.5625 0.0
1.0 -0.75 0.0
1.0 -0.6875 0.0
0.9375 -0.6875 0.0
0.9375 -0.75 0.0
0.875 -0.75 0.0
0.875 -0.6875 0.0
1.0 -0.875 0.0
1.0 -0.8125 0.0
0.9375 -0.8125 0.0
0.9375 -0.875 0.0
0.875 -0.875 0.0
0.875 -0.8125 0.0
1.0 -1.0 0.0
1.0 -0.9375 0.0
0.9375 -0.9375 0.0
0.9375 -1.0 0.0
0.875 -1.0 0.0
0.875 -0.9375 0.0
0.8125 0.9375 0.0
0.8125 0.875 0.0
0.75 0.875 0.0
0.75 0.9375 0.0
0.75 1.0 0.0
0.8125 1.0 0.0
0.8125 0.8125 0.0
0.8125 0.75 0.0
0.75 0.75 0.0
0.75 0.8125 0.0
0.8125 0.6875 0.0
0.8125 0.625 0.0
0.75 0.625 0.0
0.75 0.6875 0.0
0.8125 0.5625 0.0
0.8125 0.5 0.0
0.75 0.5 0.0
0.75 0.5625 0.0
0.8125 0.4375 0.0
0.8125 0.375 0.0
0.75 0.375 0.0
0.75 0.4375 0.0
0.8125 0.3125 0.0
0.8125 0.25 0.0
0.75 0.25 0.0
0.75 0.3125 0.0
0.8125 0.1875 0.0
0.8125 0.125 0.0
0.75 0.125 0.0
0.75 0.1875 0.0
0.8125 0.0625 0.0
0.8125 0.0 0.0
0.75 0.0 0.0
0.75 0.0625 0.0
0.8125 -0.0625 0.0
0.8125 -0.125 0.0
0.75 -0.125 0.0
0.75 -0.0625 0.0
0.8125 -0.1875 0.0
0.8125 -0.25 0.0
0.75 -0.25 0.0
0.75 -0.1875 0.0
0.8125 -0.3125 0.0
0.8125 -0.375 0.0
0.75 -0.375 0.0
0.75 -0.3125 0.0
0.8125 -0.4375 0.0
0.8125 -0.5 0.0
0.75 -0.5 0.0
0.75 -0.4375 0.0
0.8125 -0.5625 0.0
0.8125 -0.625 0.0
0.75 -0.625 0.0
0.75 -0.5625 0.0
0.8125 -0.6875 0.0
0.8125 -0.75 0.0
0.75 -0.75 0.0
0.75 -0.6875 0.0
0.8125 -0.8125 0.0
0.8125 -0.875 0.0
0.75 -0.875 0.0
0.75 -0.8125 0.0
0.8125 -0.9375 0.0
0.8125 -1.0 0.0
0.75 -1.0 0.0
0.75 -0.9375 0.0
0.6875 0.9375 0.0
0.6875 0.875 0.0
0.625 0.875 0.0
0.625 0.9375 0.0
0.625 1.0 0.0
0.6875 1.0 0.0
0.6875 0.8125 0.0
0.6875 0.75 0.0
0.625 0.75 0.0
0.625 0.8125 0.0
0.6875 0.6875 0.0
0.6875 0.625 0.0
0.625 0.625 0.0
0.625 0.6875 0.0
0.6875 0.5625 0.0
0.6875 0.5 0.0
0.625 0.5 0.0
0.625 0.5625 0.0
0.6875 0.4375 0.0
0.6875 0.375 0.0
0.625 0.375 0.0
0.625 0.4375 0.0
0.6875 0.3125 0.0
0.6875 0.25 0.0
0.625 0.25 0.0
0.625 0.3125 0.0
0.6875 0.1875 0.0
0.6875 0.125 0.0
0.625 0.125 0.0
0.625 0.1875 0.0
0.6875 0.0625 0.0
0.6875 0.0 0.0
0.625 0.0 0.0
0.625 0.0625 0.0
0.6875 -0.0625 0.0
0.6875 -0.125 0.0
0.625 -0.125 0.0
0.625 -0.0625 0.0
0.6875 -0.1875 0.0
0.6875 -0.25 0.0
0.625 -0.25 0.0
0.625 -0.1875 0.0
0.6875 -0.3125 0.0
0.6875 -0.375 0.0
0.625 -0.375 0.0
0.625 -0.3125 0.0
0.6875 -0.4375 0.0
0.6875 -0.5 0.0
0.625 -0.5 0.0
0.625 -0.4375 0.0
0.6875 -0.5625 0.0
0.6875 -0.625 0.0
0.625 -0.625 0.0
0.625 -0.5625 0.0
0.6875 -0.6875 0.0
0.6875 -0.75 0.0
0.625 -0.75 0.0
0.625 -0.6875 0.0
0.6875 -0.8125 0.0
0.6875 -0.875 0.0
0.625 -0.875 0.0
0.625 -0.8125 0.0
0.6875 -0.9375 0.0
0.6875 -1.0 0.0
0.625 -1.0 0.0
0.625 -0.9375 0.0
0.5625 0.9375 0.0
0.5625 0.875 0.0
0.5 0.875 0.0
0.5 0.9375 0.0
0.5 1.0 0.0
0.5625 1.0 0.0
0.5625 0.8125 0.0
0.5625 0.75 0.0
0.5 0.75 0.0
0.5 0.8125 0.0
0.5625 0.6875 0.0
0.5625 0.625 0.0
0.5 0.625 0.0
0.5 0.6875 0.0
0.5625 0.5625 0.0
0.5625 0.5 0.0
0.5 0.5 0.0
0.5 0.5625 0.0
0.5625 0.4375 0.0
0.5625 0.375 0.0
0.5 0.375 0.0
0.5 0.4375 0.0
0.5625 0.3125 0.0
0.5625 0.25 0.0
0.5 0.25 0.0
0.5 0.3125 0.0
0.5625 0.1875 0.0
0.5625 0.125 0.0
0.5 0.125 0.0
0.5 0.1875 0.0
0.5625 0.0625 0.0
0.5625 0.0 0.0
0.5 0.0 0.0
0.5 0.0625 0.0
0.5625 -0.0625 0.0
0.5625 -0.125 0.0
0.5 -0.125 0.0
0.5 -0.0625 0.0
0.5625 -0.1875 0.0
0.5625 -0.25 0.0
0.5 -0.25 0.0
0.5 -0.1875 0.0
0.5625 -0.3125 0.0
0.5625 -0.375 0.0
0.5 -0.375 0.0
0.5 -0.3125 0.0
0.5625 -0.4375 0.0
0.5625 -0.5 0.0
0.5 -0.5 0.0
0.5 -0.4375 0.0
0.5625 -0.5625 0.0
0.5625 -0.625 0.0
0.5 -0.625 0.0
0.5 -0.5625 0.0
0.5625 -0.6875 0.0
0.5625 -0.75 0.0
0.5 -0.75 0.0
0.5 -0.6875 0.0
0.5625 -0.8125 0.0
0.5625 -0.875 0.0
0.5 -0.875 0.0
0.5 -0.8125 0.0
0.5625 -0.9375 0.0
0.5625 -1.0 0.0
0.5 -1.0 0.0
0.5 -0.9375 0.0
-0.875 -0.875 0.0
-0.9375 -0.875 0.0
-0.9375 -0.9375 0.0
-0.875 -0.9375 0.0
-1.0 -0.875 0.0
-1.0 -0.9375 0.0
-1.0 -1.0 0.0
-0.9375 -1.0 0.0
-0.875 -1.0 0.0
-0.875 -0.75 0.0
-0.9375 -0.75 0.0
-0.9375 -0.8125 0.0
-0.875 -0.8125 0.0
-1.0 -0.75 0.0
-1.0 -0.8125 0.0
-0.875 -0.625 0.0
-0.9375 -0.625 0.0
-0.9375 -0.6875 0.0
-0.875 -0.6875 0.0
-1.0 -0.625 0.0
-1.0 -0.6875 0.0
-0.875 -0.5 0.0
-0.9375 -0.5 0.0
-0.9375 -0.5625 0.0
-0.875 -0.5625 0.0
-1.0 -0.5 0.0
-1.0 -0.5625 0.0
-0.875 -0.375 0.0
-0.9375 -0.375 0.0
-0.9375 -0.4375 0.0
-0.875 -0.4375 0.0
-1.0 -0.375 0.0
-1.0 -0.4375 0.0
-0.875 -0.25 0.0
-0.9375 -0.25 0.0
-0.9375 -0.3125 0.0
-0.875 -0.3125 0.0
-1.0 -0.25 0.0
-1.0 -0.3125 0.0
-0.875 -0.125 0.0
-0.9375 -0.125 0.0
-0.9375 -0.1875 0.0
-0.875 -0.1875 0.0
-1.0 -0.125 0.0
-1.0 -0.1875 0.0
-0.875 0.0 0.0
-0.9375 0.0 0.0
-0.9375 -0.0625 0.0
-0.875 -0.0625 0.0
-1.0 0.0 0.0
-1.0 -0.0625 0.0
-0.875 0.125 0.0
-0.9375 0.125 0.0
-0.9375 0.0625 0.0
-0.875 0.0625 0.0
-1.0 0.125 0.0
-1.0 0.0625 0.0
-0.875 0.25 0.0
-0.9375 0.25 0.0
-0.9375 0.1875 0.0
-0.875 0.1875 0.0
-1.0 0.25 0.0
-1.0 0.1875 0.0
-0.875 0.375 0.0
-0.9375 0.375 0.0
-0.9375 0.3125 0.0
-0.875 0.3125 0.0
-1.0 0.375 0.0
-1.0 0.3125 0.0
-0.875 0.5 0.0
-0.9375 0.5 0.0
-0.9375 0.4375 0.0
-0.875 0.4375 0.0
-1.0 0.5 0.0
-1.0 0.4375 0.0
-0.875 0.625 0.0
-0.9375 0.625 0.0
-0.9375 0.5625 0.0
-0.875 0.5625 0.0
-1.0 0.625 0.0
-1.0 0.5625 0.0
-0.875 0.75 0.0
-0.9375 0.75 0.0
-0.9375 0.6875 0.0
-0.875 0.6875 0.0
-1.0 0.75 0.0
-1.0 0.6875 0.0
-0.875 0.875 0.0
-0.9375 0.875 0.0
-0.9375 0.8125 0.0
-0.875 0.8125 0.0
-1.0 0.875 0.0
-1.0 0.8125 0.0
-0.875 1.0 0.0
-0.9375 1.0 0.0
-0.9375 0.9375 0.0
-0.875 0.9375 0.0
-1.0 1.0 0.0
-1.0 0.9375 0.0
-0.75 -0.875 0.0
-0.8125 -0.875 0.0
-0.8125 -0.9375 0.0
-0.75 -0.9375 0.0
-0.8125 -1.0 0.0
-0.75 -1.0 0.0
-0.75 -0.75 0.0
-0.8125 -0.75 0.0
-0.8125 -0.8125 0.0
-0.75 -0.8125 0.0
-0.75 -0.625 0.0
-0.8125 -0.625 0.0
-0.8125 -0.6875 0.0
-0.75 -0.6875 0.0
-0.75 -0.5 0.0
-0.8125 -0.5 0.0
-0.8125 -0.5625 0.0
-0.75 -0.5625 0.0
-0.75 -0.375 0.0
-0.8125 -0.375 0.0
-0.8125 -0.4375 0.0
-0.75 -0.4375 0.0
-0.75 -0.25 0.0
-0.8125 -0.25 0.0
-0.8125 -0.3125 0.0
-0.75 -0.3125 0.0
-0.75 -0.125 0.0
-0.8125 -0.125 0.0
-0.8125 -0.1875 0.0
-0.75 -0.1875 0.0
-0.75 0.0 0.0
-0.8125 0.0 0.0
-0.8125 -0.0625 0.0
-0.75 -0.0625 0.0
-0.75 0.125 0.0
-0.8125 0.125 0.0
-0.8125 0.0625 0.0
-0.75 0.0625 0.0
-0.75 0.25 0.0
-0.8125 0.25 0.0
-0.8125 0.1875 0.0
-0.75 0.1875 0.0
-0.75 0.375 0.0
-0.8125 0.375 0.0
-0.8125 0.3125 0.0
-0.75 0.3125 0.0
-0.75 0.5 0.0
-0.8125 0.5 0.0
-0.8125 0.4375 0.0
-0.75 0.4375 0.0
-0.75 0.625 0.0
-0.8125 0.625 0.0
-0.8125 0.5625 0.0
-0.75 0.5625 0.0
-0.75 0.75 0.0
-0.8125 0.75 0.0
-0.8125 0.6875 0.0
-0.75 0.6875 0.0
-0.75 0.875 0.0
-0.8125 0.875 0.0
-0.8125 0.8125 0.0
-0.75 0.8125 0.0
-0.75 1.0 0.0
-0.8125 1.0 0.0
-0.8125 0.9375 0.0
-0.75 0.9375 0.0
-0.625 -0.875 0.0
-0.6875 -0.875 0.0
-0.6875 -0.9375 0.0
-0.625 -0.9375 0.0
-0.6875 -1.0 0.0
-0.625 -1.0 0.0
-0.625 -0.75 0.0
-0.6875 -0.75 0.0
-0.6875 -0.8125 0.0
-0.625 -0.8125 0.0
-0.625 -0.625 0.0
-0.6875 -0.625 0.0
-0.6875 -0.6875 0.0
-0.625 -0.6875 0.0
-0.625 -0.5 0.0
-0.6875 -0.5 0.0
-0.6875 -0.5625 0.0
-0.625 -0.5625 0.0
-0.625 -0.375 0.0
-0.6875 -0.375 0.0
-0.6875 -0.4375 0.0
-0.625 -0.4375 0.0
-0.625 -0.25 0.0
-0.6875 -0.25 0.0
-0.6875 -0.3125 0.0
-0.625 -0.3125 0.0
-0.625 -0.125 0.0
-0.6875 -0.125 0.0
-0.6875 -0.1875 0.0
-0.625 -0.1875 0.0
-0.625 0.0 0.0
-0.6875 0.0 0.0
-0.6875 -0.0625 0.0
-0.625 -0.0625 0.0
-0.625 0.125 0.0
-0.6875 0.125 0.0
-0.6875 0.0625 0.0
-0.625 0.0625 0.0
-0.625 0.25 0.0
-0.6875 0.25 0.0
-0.6875 0.1875 0.0
-0.625 0.1875 0.0
-0.625 0.375 0.0
-0.6875 0.375 0.0
-0.6875 0.3125 0.0
-0.625 0.3125 0.0
-0.625 0.5 0.0
-0.6875 0.5 0.0
-0.6875 0.4375 0.0
-0.625 0.4375 0.0
-0.625 0.625 0.0
-0.6875 0.625 0.0
-0.6875 0.5625 0.0
-0.625 0.5625 0.0
-0.625 0.75 0.0
-0.6875 0.75 0.0
-0.6875 0.6875 0.0
-0.625 0.6875 0.0
-0.625 0.875 0.0
-0.6875 0.875 0.0
-0.6875 0.8125 0.0
-0.625 0.8125 0.0
-0.625 1.0 0.0
-0.6875 1.0 0.0
-0.6875 0.9375 0.0
-0.625 0.9375 0.0
-0.5 -0.875 0.0
-0.5625 -0.875 0.0
-0.5625 -0.9375 0.0
-0.5 -0.9375 0.0
-0.5625 -1.0 0.0
-0.5 -1.0 0.0
-0.5 -0.75 0.0
-0.5625 -0.75 0.0
-0.5625 -0.8125 0.0
-0.5 -0.8125 0.0
-0.5 -0.625 0.0
-0.5625 -0.625 0.0
-0.5625 -0.6875 0.0
-0.5 -0.6875 0.0
-0.5 -0.5 0.0
-0.5625 -0.5 0.0
-0.5625 -0.5625 0.0
-0.5 -0.5625 0.0
-0.5 -0.375 0.0
-0.5625 -0.375 0.0
-0.5625 -0.4375 0.0
-0.5 -0.4375 0.0
-0.5 -0.25 0.0
-0.5625 -0.25 0.0
-0.5625 -0.3125 0.0
-0.5 -0.3125 0.0
-0.5 -0.125 0.0
-0.5625 -0.125 0.0
-0.5625 -0.1875 0.0
-0.5 -0.1875 0.0
-0.5 0.0 0.0
-0.5625 0.0 0.0
-0.5625 -0.0625 0.0
-0.5 -0.0625 0.0
-0.5 0.125 0.0
-0.5625 0.125 0.0
-0.5625 0.0625 0.0
-0.5 0.0625 0.0
-0.5 0.25 0.0
-0.5625 0.25 0.0
-0.5625 0.1875 0.0
-0.5 0.1875 0.0
-0.5 0.375 0.0
-0.5625 0.375 0.0
-0.5625 0.3125 0.0
-0.5 0.3125 0.0
-0.5 0.5 0.0
-0.5625 0.5 0.0
-0.5625 0.4375 0.0
-0.5 0.4375 0.0
-0.5 0.625 0.0
-0.5625 0.625 0.0
-0.5625 0.5625 0.0
-0.5 0.5625 0.0
-0.5 0.75 0.0
-0.5625 0.75 0.0
-0.5625 0.6875 0.0
-0.5 0.6875 0.0
-0.5 0.875 0.0
-0.5625 0.875 0.0
-0.5625 0.8125 0.0
-0.5 0.8125 0.0
-0.5 1.0 0.0
-0.5625 1.0 0.0
-0.5625 0.9375 0.0
-0.5 0.9375 0.0
-0.375 -0.875 0.0
-0.4375 -0.875 0.0
-0.4375 -0.9375 0.0
-0.375 -0.9375 0.0
-0.4375 -1.0 0.0
-0.375 -1.0 0.0
-0.375 -0.75 0.0
-0.4375 -0.75 0.0
-0.4375 -0.8125 0.0
-0.375 -0.8125 0.0
-0.375 -0.625 0.0
-0.4375 -0.625 0.0
-0.4375 -0.6875 0.0
-0.375 -0.6875 0.0
-0.375 -0.5 0.0
-0.4375 -0.5 0.0
-0.4375 -0.5625 0.0
-0.375 -0.5625 0.0
-0.375 -0.375 0.0
-0.4375 -0.375 0.0
-0.4375 -0.4375 0.0
-0.375 -0.4375 0.0
-0.375 -0.25 0.0
-0.4375 -0.25 0.0
-0.4375 -0.3125 0.0
-0.375 -0.3125 0.0
-0.375 -0.125 0.0
-0.4375 -0.125 0.0
-0.4375 -0.1875 0.0
-0.375 -0.1875 0.0
-0.375 0.0 0.0
-0.4375 0.0 0.0
-0.4375 -0.0625 0.0
-0.375 -0.0625 0.0
-0.375 0.125 0.0
-0.4375 0.125 0.0
-0.4375 0.0625 0.0
-0.375 0.0625 0.0
-0.375 0.25 0.0
-0.4375 0.25 0.0
-0.4375 0.1875 0.0
-0.375 0.1875 0.0
-0.375 0.375 0.0
-0.4375 0.375 0.0
-0.4375 0.3125 0.0
-0.375 0.3125 0.0
-0.375 0.5 0.0
-0.4375 0.5 0.0
-0.4375 0.4375 0.0
-0.375 0.4375 0.0
-0.375 0.625 0.0
-0.4375 0.625 0.0
-0.4375 0.5625 0.0
-0.375 0.5625 0.0
-0.375 0.75 0.0
-0.4375 0.75 0.0
-0.4375 0.6875 0.0
-0.375 0.6875 0.0
-0.375 0.875 0.0
-0.4375 0.875 0.0
-0.4375 0.8125 0.0
-0.375 0.8125 0.0
-0.375 1.0 0.0
-0.4375 1.0 0.0
-0.4375 0.9375 0.0
-0.375 0.9375 0.0
-0.25 -0.875 0.0
-0.3125 -0.875 0.0
-0.3125 -0.9375 0.0
-0.25 -0.9375 0.0
-0.3125 -1.0 0.0
-0.25 -1.0 0.0
-0.25 -0.75 0.0
-0.3125 -0.75 0.0
-0.3125 -0.8125 0.0
-0.25 -0.8125 0.0
-0.25 -0.625 0.0
-0.3125 -0.625 0.0
-0.3125 -0.6875 0.0
-0.25 -0.6875 0.0
-0.25 -0.5 0.0
-0.3125 -0.5 0.0
-0.3125 -0.5625 0.0
-0.25 -0.5625 0.0
-0.25 -0.375 0.0
-0.3125 -0.375 0.0
-0.3125 -0.4375 0.0
-0.25 -0.4375 0.0
-0.25 -0.25 0.0
-0.3125 -0.25 0.0
-0.3125 -0.3125 0.0
-0.25 -0.3125 0.0
-0.25 -0.125 0.0
-0.3125 -0.125 0.0
-0.3125 -0.1875 0.0
-0.25 -0.1875 0.0
-0.25 0.0 0.0
-0.3125 0.0 0.0
-0.3125 -0.0625 0.0
-0.25 -0.0625 0.0
-0.25 0.125 0.0
-0.3125 0.125 0.0
-0.3125 0.0625 0.0
-0.25 0.0625 0.0
-0.25 0.25 0.0
-0.3125 0.25 0.0
-0.3125 0.1875 0.0
-0.25 0.1875 0.0
-0.25 0.375 0.0
-0.3125 0.375 0.0
-0.3125 0.3125 0.0
-0.25 0.3125 0.0
-0.25 0.5 0.0
-0.3125 0.5 0.0
-0.3125 0.4375 0.0
-0.25 0.4375 0.0
-0.25 0.625 0.0
-0.3125 0.625 0.0
-0.3125 0.5625 0.0
-0.25 0.5625 0.0
-0.25 0.75 0.0
-0.3125 0.75 0.0
-0.3125 0.6875 0.0
-0.25 0.6875 0.0
-0.25 0.875 0.0
-0.3125 0.875 0.0
-0.3125 0.8125 0.0
-0.25 0.8125 0.0
-0.25 1.0 0.0
-0.3125 1.0 0.0
-0.3125 0.9375 0.0
-0.25 0.9375 0.0
-0.125 -0.875 0.0
-0.1875 -0.875 0.0
-0.1875 -0.9375 0.0
-0.125 -0.9375 0.0
-0.1875 -1.0 0.0
-0.125 -1.0 0.0
-0.125 -0.75 0.0
-0.1875 -0.75 0.0
-0.1875 -0.8125 0.0
-0.125 -0.8125 0.0
-0.125 -0.625 0.0
-0.1875 -0.625 0.0
-0.1875 -0.6875 0.0
-0.125 -0.6875 0.0
-0.125 -0.5 0.0
-0.1875 -0.5 0.0
-0.1875 -0.5625 0.0
-0.125 -0.5625 0.0
-0.125 -0.375 0.0
-0.1875 -0.375 0.0
-0.1875 -0.4375 0.0
-0.125 -0.4375 0.0
-0.125 -0.25 0.0
-0.1875 -0.25 0.0
-0.1875 -0.3125 0.0
-0.125 -0.3125 0.0
-0.125 -0.125 0.0
-0.1875 -0.125 0.0
-0.1875 -0.1875 0.0
-0.125 -0.1875 0.0
-0.125 0.0 0.0
-0.1875 0.0 0.0
-0.1875 -0.0625 0.0
-0.125 -0.0625 0.0
-0.125 0.125 0.0
-0.1875 0.125 0.0
-0.1875 0.0625 0.0
-0.125 0.0625 0.0
-0.125 0.25 0.0
-0.1875 0.25 0.0
-0.1875 0.1875 0.0
-0.125 0.1875 0.0
-0.125 0.375 0.0
-0.1875 0.375 0.0
-0.1875 0.3125 0.0
-0.125 0.3125 0.0
-0.125 0.5 0.0
-0.1875 0.5 0.0
-0.1875 0.4375 0.0
-0.125 0.4375 0.0
-0.125 0.625 0.0
-0.1875 0.625 0.0
-0.1875 0.5625 0.0
-0.125 0.5625 0.0
-0.125 0.75 0.0
-0.1875 0.75 0.0
-0.1875 0.6875 0.0
-0.125 0.6875 0.0
-0.125 0.875 0.0
-0.1875 0.875 0.0
-0.1875 0.8125 0.0
-0.125 0.8125 0.0
-0.125 1.0 0.0
-0.1875 1.0 0.0
-0.1875 0.9375 0.0
-0.125 0.9375 0.0
1.2300766466e-17 -0.875 0.0
-0.0625 -0.875 0.0
-0.0625 -0.9375 0.0
6.93889390391e-18 -0.9375 0.0
-0.0625 -1.0 0.0
0.0 -1.0 0.0
1.41931920762e-17 -0.75 0.0
-0.0625 -0.75 0.0
-0.0625 -0.8125 0.0
1.56125112838e-17 -0.8125 0.0
1.41931920762e-17 -0.625 0.0
-0.0625 -0.625 0.0
-0.0625 -0.6875 0.0
1.56125112838e-17 -0.6875 0.0
1.41931920762e-17 -0.5 0.0
-0.0625 -0.5 0.0
-0.0625 -0.5625 0.0
1.56125112838e-17 -0.5625 0.0
1.76626390281e-17 -0.375 0.0
-0.0625 -0.375 0.0
-0.0625 -0.4375 0.0
1.56125112838e-17 -0.4375 0.0
1.76626390281e-17 -0.25 0.0
-0.0625 -0.25 0.0
-0.0625 -0.3125 0.0
1.90819582357e-17 -0.3125 0.0
1.41931920762e-17 -0.125 0.0
-0.0625 -0.125 0.0
-0.0625 -0.1875 0.0
1.90819582357e-17 -0.1875 0.0
3.78485122031e-18 0.0 0.0
-0.0625 0.0 0.0
-0.0625 -0.0625 0.0
1.21430643318e-17 -0.0625 0.0
1.41931920762e-17 0.125 0.0
-0.0625 0.125 0.0
-0.0625 0.0625 0.0
1.38777878078e-17 0.0625 0.0
1.76626390281e-17 0.25 0.0
-0.0625 0.25 0.0
-0.0625 0.1875 0.0
1.90819582357e-17 0.1875 0.0
1.76626390281e-17 0.375 0.0
-0.0625 0.375 0.0
-0.0625 0.3125 0.0
1.90819582357e-17 0.3125 0.0
1.76626390281e-17 0.5 0.0
-0.0625 0.5 0.0
-0.0625 0.4375 0.0
1.90819582357e-17 0.4375 0.0
1.76626390281e-17 0.625 0.0
-0.0625 0.625 0.0
-0.0625 0.5625 0.0
1.90819582357e-17 0.5625 0.0
1.76626390281e-17 0.75 0.0
-0.0625 0.75 0.0
-0.0625 0.6875 0.0
1.90819582357e-17 0.6875 0.0
1.76626390281e-17 0.875 0.0
-0.0625 0.875 0.0
-0.0625 0.8125 0.0
1.90819582357e-17 0.8125 0.0
0.0 1.0 0.0
-0.0625 1.0 0.0
-0.0625 0.9375 0.0
8.67361737988e-18 0.9375 0.0
0.125 -0.875 0.0
0.0625 -0.875 0.0
0.0625 -0.9375 0.0
0.125 -0.9375 0.0
0.0625 -1.0 0.0
0.125 -1.0 0.0
0.125 -0.75 0.0
0.0625 -0.75 0.0
0.0625 -0.8125 0.0
0.125 -0.8125 0.0
0.125 -0.625 0.0
0.0625 -0.625 0.0
0.0625 -0.6875 0.0
0.125 -0.6875 0.0
0.125 -0.5 0.0
0.0625 -0.5 0.0
0.0625 -0.5625 0.0
0.125 -0.5625 0.0
0.125 -0.375 0.0
0.0625 -0.375 0.0
0.0625 -0.4375 0.0
0.125 -0.4375 0.0
0.125 -0.25 0.0
0.0625 -0.25 0.0
0.0625 -0.3125 0.0
0.125 -0.3125 0.0
0.125 -0.125 0.0
0.0625 -0.125 0.0
0.0625 -0.1875 0.0
0.125 -0.1875 0.0
0.125 0.0 0.0
0.0625 0.0 0.0
0.0625 -0.0625 0.0
0.125 -0.0625 0.0
0.125 0.125 0.0
0.0625 0.125 0.0
0.0625 0.0625 0.0
0.125 0.0625 0.0
0.125 0.25 0.0
0.0625 0.25 0.0
0.0625 0.1875 0.0
0.125 0.1875 0.0
0.125 0.375 0.0
0.0625 0.375 0.0
0.0625 0.3125 0.0
0.125 0.3125 0.0
0.125 0.5 0.0
0.0625 0.5 0.0
0.0625 0.4375 0.0
0.125 0.4375 0.0
0.125 0.625 0.0
0.0625 0.625 0.0
0.0625 0.5625 0.0
0.125 0.5625 0.0
0.125 0.75 0.0
0.0625 0.75 0.0
0.0625 0.6875 0.0
0.125 0.6875 0.0
0.125 0.875 0.0
0.0625 0.875 0.0
0.0625 0.8125 0.0
0.125 0.8125 0.0
0.125 1.0 0.0
0.0625 1.0 0.0
0.0625 0.9375 0.0
0.125 0.9375 0.0
0.25 -0.875 0.0
0.1875 -0.875 0.0
0.1875 -0.9375 0.0
0.25 -0.9375 0.0
0.1875 -1.0 0.0
0.25 -1.0 0.0
0.25 -0.75 0.0
0.1875 -0.75 0.0
0.1875 -0.8125 0.0
0.25 -0.8125 0.0
0.25 -0.625 0.0
0.1875 -0.625 0.0
0.1875 -0.6875 0.0
0.25 -0.6875 0.0
0.25 -0.5 0.0
0.1875 -0.5 0.0
0.1875 -0.5625 0.0
0.25 -0.5625 0.0
0.25 -0.375 0.0
0.1875 -0.375 0.0
0.1875 -0.4375 0.0
0.25 -0.4375 0.0
0.25 -0.25 0.0
0.1875 -0.25 0.0
0.1875 -0.3125 0.0
0.25 -0.3125 0.0
0.25 -0.125 0.0
0.1875 -0.125 0.0
0.1875 -0.1875 0.0
0.25 -0.1875 0.0
0.25 0.0 0.0
0.1875 0.0 0.0
0.1875 -0.0625 0.0
0.25 -0.0625 0.0
0.25 0.125 0.0
0.1875 0.125 0.0
0.1875 0.0625 0.0
0.25 0.0625 0.0
0.25 0.25 0.0
0.1875 0.25 0.0
0.1875 0.1875 0.0
0.25 0.1875 0.0
0.25 0.375 0.0
0.1875 0.375 0.0
0.1875 0.3125 0.0
0.25 0.3125 0.0
0.25 0.5 0.0
0.1875 0.5 0.0
0.1875 0.4375 0.0
0.25 0.4375 0.0
0.25 0.625 0.0
0.1875 0.625 0.0
0.1875 0.5625 0.0
0.25 0.5625 0.0
0.25 0.75 0.0
0.1875 0.75 0.0
0.1875 0.6875 0.0
0.25 0.6875 0.0
0.25 0.875 0.0
0.1875 0.875 0.0
0.1875 0.8125 0.0
0.25 0.8125 0.0
0.25 1.0 0.0
0.1875 1.0 0.0
0.1875 0.9375 0.0
0.25 0.9375 0.0
0.375 -0.875 0.0
0.3125 -0.875 0.0
0.3125 -0.9375 0.0
0.375 -0.9375 0.0
0.3125 -1.0 0.0
0.375 -1.0 0.0
0.375 -0.75 0.0
0.3125 -0.75 0.0
0.3125 -0.8125 0.0
0.375 -0.8125 0.0
0.375 -0.625 0.0
0.3125 -0.625 0.0
0.3125 -0.6875 0.0
0.375 -0.6875 0.0
0.375 -0.5 0.0
0.3125 -0.5 0.0
0.3125 -0.5625 0.0
0.375 -0.5625 0.0
0.375 -0.375 0.0
0.3125 -0.375 0.0
0.3125 -0.4375 0.0
0.375 -0.4375 0.0
0.375 -0.25 0.0
0.3125 -0.25 0.0
0.3125 -0.3125 0.0
0.375 -0.3125 0.0
0.375 -0.125 0.0
0.3125 -0.125 0.0
0.3125 -0.1875 0.0
0.375 -0.1875 0.0
0.375 0.0 0.0
0.3125 0.0 0.0
0.3125 -0.0625 0.0
0.375 -0.0625 0.0
0.375 0.125 0.0
0.3125 0.125 0.0
0.3125 0.0625 0.0
0.375 0.0625 0.0
0.375 0.25 0.0
0.3125 0.25 0.0
0.3125 0.1875 0.0
0.375 0.1875 0.0
0.375 0.375 0.0
0.3125 0.375 0.0
0.3125 0.3125 0.0
0.375 0.3125 0.0
0.375 0.5 0.0
0.3125 0.5 0.0
0.3125 0.4375 0.0
0.375 0.4375 0.0
0.375 0.625 0.0
0.3125 0.625 0.0
0.3125 0.5625 0.0
0.375 0.5625 0.0
0.375 0.75 0.0
0.3125 0.75 0.0
0.3125 0.6875 0.0
0.375 0.6875 0.0
0.375 0.875 0.0
0.3125 0.875 0.0
0.3125 0.8125 0.0
0.375 0.8125 0.0
0.375 1.0 0.0
0.3125 1.0 0.0
0.3125 0.9375 0.0
0.375 0.9375 0.0
0.4375 -0.875 0.0
0.4375 -0.9375 0.0
0.4375 -1.0 0.0
0.4375 -0.75 0.0
0.4375 -0.8125 0.0
0.4375 -0.625 0.0
0.4375 -0.6875 0.0
0.4375 -0.5 0.0
0.4375 -0.5625 0.0
0.4375 -0.375 0.0
0.4375 -0.4375 0.0
0.4375 -0.25 0.0
0.4375 -0.3125 0.0
0.4375 -0.125 0.0
0.4375 -0.1875 0.0
0.4375 0.0 0.0
0.4375 -0.0625 0.0
0.4375 0.125 0.0
0.4375 0.0625 0.0
0.4375 0.25 0.0
0.4375 0.1875 0.0
0.4375 0.375 0.0
0.4375 0.3125 0.0
0.4375 0.5 0.0
0.4375 0.4375 0.0
0.4375 0.625 0.0
0.4375 0.5625 0.0
0.4375 0.75 0.0
0.4375 0.6875 0.0
0.4375 0.875 0.0
0.4375 0.8125 0.0
0.4375 1.0 0.0
0.4375 0.9375 0.0

POINT_DATA 1089
SCALARS Radiance double
LOOKUP_TABLE default
0.0124316468215
0.126542855526
0.277142585468
0.116128974269
0.271555522937
0.462497706683
0.643974643429
0.458163601674
0.284474174827
-0.0627653469549
-0.0476518090098
0.0042827820365
-0.052269006516
-0.000970399330288
0.109161162533
-0.0273279704298
-0.0501261352313
-0.0640169534018
-0.0490609209912
-0.0643167262357
-0.0549631422064
0.00459700141478
-0.0071258335767
-0.0253298771153
-0.00534619002233
-0.0235598633181
-0.0477909832222
0.00594730484281
0.00786989122016
0.00557617866749
0.00804192842318
0.00623492593992
-0.00393805990503
-4.69137432849e-05
0.00251521590996
0.00564627010471
0.00212308490142
0.00529042937329
0.00802806671953
-0.000910632150887
-0.00104513859564
-0.000295864063227
-0.00110614403049
-0.000490252695655
0.00175852434864
1.20258849073e-05
-0.00038805284762
-0.000857663487698
-0.000314933176992
-0.000785940041582
-0.00112363741888
0.000110905601821
0.000148195749807
5.28662199604e-05
0.000152739005759
8.44167614954e-05
-0.000243054023426
-1.15586139443e-05
3.35239921772e-05
9.88069745609e-05
2.26449455666e-05
8.39328961729e-05
0.000149545278204
-8.86226881994e-06
-1.84214877728e-05
-1.51774518891e-05
-1.72264762608e-05
-1.71145458331e-05
1.25738665839e-05
2.10579152007e-06
-4.51184235836e-07
-6.87941678075e-06
4.36787060257e-07
-4.82624913195e-06
-1.50895018866e-05
2.3852966283e-07
1.33847342675e-06
2.05192334069e-06
1.0560909782e-06
1.80805282724e-06
1.05721624655e-06
-1.23229585918e-07
-1.66570341312e-07
1.00710630317e-07
-1.64475956319e-07
-5.45702796626e-10
7.41952893336e-07
8.29330267959e-09
-2.26293312937e-08
-8.96945540067e-08
-9.54536715213e-09
-5.22949563824e-08
-1.34857055408e-07
0.0
3.12374215732e-09
5.68213154791e-09
0.0
0.0
-1.51270924092e-09
0.655069175749
0.462902398324
0.660202070051
0.814598558791
0.88845276221
0.799330591298
0.266911226112
0.103852546758
0.262733066889
0.461787505268
-0.00487623806523
-0.0567514503448
-0.00816293596901
0.0993014915793
-0.0641361908607
-0.0463874888564
-0.0636857651773
-0.0580946903718
-0.0218802122543
-0.0027136842215
-0.0202278831218
-0.0448807593411
0.00671929789193
0.00790520796104
0.00709494050822
-0.00158827464205
0.00490042105913
0.00141214454018
0.00448646899056
0.00770823440351
-0.000647707297903
-0.00111194623724
-0.000775692235116
0.00108082620833
-0.000703219958149
-0.000174552786336
-0.000613949132642
-0.00107799853945
0.000107867120548
0.000140864957027
0.000123749351117
-0.000111051907312
6.80125347229e-05
3.93142470894e-06
5.21821698437e-05
0.000128122444172
-1.75869387469e-05
-1.24620542685e-05
-1.68214575354e-05
-2.93512542347e-06
-2.97161454328e-06
1.38573039113e-06
-1.46345440603e-06
-9.67216422872e-06
1.45564198365e-06
4.57543184377e-07
1.06317023189e-06
1.44648434982e-06
-5.41618978812e-08
-9.01850409621e-08
-6.37235372153e-08
2.35525915585e-07
-2.08658876773e-08
0.0
0.0
-4.21149543298e-08
0.904419518182
0.823317815144
0.91463218973
0.901750127826
0.798780766214
0.88901830626
0.662766846235
0.460062333484
0.66422915075
0.829139080054
0.258740800546
0.0950621360313
0.254772960493
0.458054316876
-0.0111695709193
-0.0591987331047
-0.0140516134048
0.090916841269
-0.0630571776448
-0.0432830730946
-0.0622883201946
-0.0601528933367
-0.0185749203705
-0.000525150195693
-0.0169099555653
-0.0415988031456
0.00739009754332
0.00745279248124
0.00761552922428
0.000489738488008
0.00405444468929
0.000764757044808
0.0036085964386
0.00714579908585
-0.000876848212742
-0.00102541915282
-0.000951581359645
0.000465950928419
-0.000521187023961
-5.39538943464e-05
-0.000427498723122
-0.000956501315029
0.000132371941708
0.000112419814463
0.000134062808003
-4.52816074187e-06
3.72853079786e-05
-7.85897636206e-06
2.39933271293e-05
9.47734121075e-05
-1.50755571481e-05
-6.97701972975e-06
-1.26414642982e-05
-1.08206115996e-05
-3.7068444256e-07
1.29373513233e-06
2.97441582905e-07
-4.57971907302e-06
6.87037853458e-07
8.85377351644e-08
3.69776126679e-07
9.98935910948e-07
-4.07468116092e-08
0.0
0.0
1.43446177878e-08
0.805182564201
0.910655423544
0.810252401212
0.636099382336
0.439757593508
0.637150114528
0.922235709351
0.833715664928
0.928722254398
0.917750349683
0.66521051222
0.455870047205
0.66596780125
0.837791082884
0.250737462964
0.0867601921543
0.246581215022
0.453535067863
-0.0168783291359
-0.0609931978833
-0.0196786262472
0.0825412916382
-0.0613926474471
-0.0398288895695
-0.0603724420837
-0.061731238374
-0.0152295891342
0.00145960381221
-0.0135344005048
-0.037972787596
0.00777372905811
0.00679031922548
0.00786317657135
0.00238223543368
0.00315281906081
0.00018751614441
0.00269129634653
0.0063878752857
-0.000999352180568
-0.000873184870022
-0.00101936496186
-6.67086069797e-05
-0.000335359554688
3.61018006418e-05
-0.000247318344785
-0.000777571691298
0.000129314291208
7.62121566629e-05
0.000118873416797
6.70264409576e-05
1.28369414624e-05
-1.19379321717e-05
4.19317671532e-06
5.77971667756e-05
-9.8368146975e-06
-2.62867666015e-06
-6.98404707372e-06
-1.1460270686e-05
5.80167712048e-07
6.39384391259e-07
5.54912612288e-07
-1.21044330334e-06
1.377575467e-07
0.0
0.0
2.87316731076e-07
0.00278068022721
0.287587339914
-0.0710177891863
-0.057443174825
1.0
0.0
0.0
0.0
0.0
0.732309726202
0.9745445374
0.799102591128
0.349016578305
1.0
1.0
1.02874057272
1.03502283556
1.01921230461
0.942853715333
1.0
1.0
1.01973376095
0.714960223199
1.08470079721
1.09757241882
0.0
1.0
0.26494399797
0.0232206907467
0.199212566742
0.657147813916
0.0
0.0
-0.0201867304309
-0.0156315987607
-0.017624712568
0.0526444392175
0.0
0.0
-0.0142016442204
-0.00077802293085
-0.0066055978555
-0.0265889830421
0.0
0.0
0.00157064295568
0.00119977796681
0.00123999447711
-0.00335256120259
0.0
0.0
0.00138117401454
9.88504674441e-05
0.00058464359726
0.00229624236872
0.0
0.0
-0.000127806836519
-0.000125053817805
-0.000108636311264
0.000397636607006
0.0
0.0
-0.000167228366266
-1.69609584089e-05
-6.99355286147e-05
-0.000245365654791
0.0
0.0
8.34841850309e-06
1.47945715018e-05
9.92357901599e-06
-5.88029028079e-05
0.0
0.0
2.23422238779e-05
2.97047606539e-06
9.47157303e-06
2.86737969738e-05
0.0
0.0
-1.41518086437e-07
-1.87773351164e-06
-8.76648177637e-07
9.22843935334e-06
0.0
0.0
-2.90188957057e-06
-3.67615529727e-07
-1.28490271722e-06
-3.53349521077e-06
0.0
0.0
1.31177649841e-07
1.60424061873e-07
1.51599439384e-07
-1.04640376618e-06
0.0
0.0
-0.0495240458144
-0.0636880770982
-0.0293720249959
-0.00941780775667
0.0
0.0
0.0916963956829
0.368282702176
0.0569492122023
-0.0527261267696
0.677754034933
0.918933529467
0.69905031568
0.376300614533
1.06499231117
1.10782343405
1.05224828282
0.910564102879
0.943074650147
0.641379545173
0.972505748549
1.09891859037
0.317438402203
0.0763945101412
0.297071895333
0.63597151604
-0.0112647556981
-0.0334480059798
-0.0168201812891
0.0952839227702
-0.0274212764481
-0.0069129256784
-0.0212933314083
-0.0374414108234
-0.000155781982625
0.00309650501001
0.00104497245022
-0.0108880903572
0.00308303976282
0.000860708182869
0.00224975018302
0.00353021100466
0.000161588574099
-0.000334112538257
-3.77130725119e-05
0.00143656071188
-0.000387380381719
-0.000123882828669
-0.000277935845322
-0.000372726756165
-4.1654755322e-05
3.80199568323e-05
-8.37736425295e-06
-0.000207230104869
5.10139202048e-05
1.86116963628e-05
3.68939176412e-05
3.97738320454e-05
7.66959084423e-06
-4.48312325893e-06
2.6735940762e-06
3.0385448242e-05
-5.68833152123e-06
-1.86005144279e-06
-4.5277517696e-06
-4.32219583627e-06
-0.00384427042783
-0.0220132323153
-4.659419303e-05
0.0024464680183
0.0
0.0
-0.0629663351683
-0.0384825648968
-0.0594528854261
-0.0332154918861
0.130743682165
0.379615670072
0.114858968897
-0.0250313302049
0.661582702829
0.908530767732
0.666337052546
0.382068793661
1.06360344117
1.0851671921
1.06735803103
0.907556584148
0.909246287814
0.634025148645
0.923479987789
1.0709284373
0.34429049898
0.110810286794
0.332381478643
0.633509304963
0.00148138863462
-0.0395171736697
-0.00497289972882
0.124004709696
-0.0367694606566
-0.0149377133969
-0.0325466152228
-0.0403014302919
-0.00385348333839
0.00359833652062
-0.00184151627853
-0.0188760856161
0.00439621602738
0.00207395064965
0.00381144558344
0.00333581620212
0.000832148407927
-0.000351159898613
0.000457690015812
0.00272924022533
-0.000553421824886
-0.00030204556291
-0.000482594540589
-0.000266384629038
-0.00015362717887
3.18021420327e-05
-9.08359288698e-05
-0.000400901500236
6.93003213917e-05
4.32874919671e-05
6.2505969049e-05
1.3052027986e-05
2.1902104765e-05
-2.84269166765e-06
1.44478130677e-05
5.55114891839e-05
0.00376805670535
0.00322377000938
0.0019622256765
0.000869716421826
0.0
0.0
-0.0155128385741
-0.0418819392085
-0.00946042042422
0.00240876731215
-0.0613012837033
-0.0135131935493
-0.0629767384009
-0.0481811197731
0.151651036497
0.385237545878
0.142348884633
-0.00391356480171
0.661080863561
0.905944151656
0.660475757891
0.389344296583
1.04835957836
1.05737430217
1.05671626773
0.903435975327
0.888957153406
0.633642594176
0.898128449666
1.04474659456
0.362879349917
0.135519760925
0.354263040704
0.634066674068
0.0140928354173
-0.0401965169549
0.00786714514187
0.145774047314
-0.0430187695906
-0.0226095031723
-0.0402195477025
-0.0394637172576
-0.00840429841404
0.00278974860752
-0.00607058728534
-0.0260961930891
0.00508057549555
0.00336843496377
0.00482030803705
0.00200824901579
0.00173597295218
-0.000120418183666
0.00126475334235
0.00396659064382
-0.00059574661548
-0.00049647523956
-0.000592678965254
8.14972757536e-05
-0.000304530283845
-1.63936852323e-05
-0.000226447302768
-0.000581769095234
6.15028645033e-05
6.45071358314e-05
6.95358278021e-05
-5.52061349736e-05
0.000557366834543
0.00210851013748
0.000113038777982
-0.000182953529117
0.0
0.0
0.0055666287349
0.000455200826976
0.00500660201711
0.00343744509127
-0.0264544208096
-0.0526507380938
-0.0212732722428
-0.00217460915068
-0.0563961496356
0.00419039186873
-0.0589472454256
-0.0558282166355
0.167283709915
0.394128917833
0.159774648298
0.0112562271413
0.663754865518
0.900188545333
0.662347543689
0.399267650386
1.03032311776
1.03302545391
1.03940939268
0.896420053069
0.874122671818
0.634600530311
0.881083124351
1.02212536738
0.37728106831
0.155045338229
0.370479815304
0.635148458674
0.0259580640792
-0.0382768035087
0.0201256560889
0.163524920808
-0.0470619934015
-0.029322792032
-0.0452710835658
-0.0367545563669
-0.0131868499536
0.0010353965825
-0.0107912900602
-0.0322909822823
0.00513342128128
0.00450612392508
0.00518197492131
-9.07123695888e-05
0.00272512677848
0.00033232813744
0.00222805260522
0.00497469205153
-0.000482715826704
-0.000649743521464
-0.000559801465912
0.000624260367698
-0.000448015550725
-0.000100413208604
-0.000381509955626
-0.000692120096605
-0.00037696272735
-0.000221321954344
-0.000192571845522
-0.000103904890092
0.0
0.0
0.00212055452976
0.0046518871422
0.00126133603679
-8.25911438718e-05
0.00494473790977
-0.00513262509534
0.00550537712335