# vtk DataFile Version 2.0
Packing Fraction Fields
ASCII
DATASET UNSTRUCTURED_GRID
POINTS 289 double
-0.875 -0.875 0.0
-1.0 -0.875 0.0
-1.0 -1.0 0.0
-0.875 -1.0 0.0
-0.875 -0.75 0.0
-1.0 -0.75 0.0
-0.875 -0.625 0.0
-1.0 -0.625 0.0
-0.875 -0.5 0.0
-1.0 -0.5 0.0
-0.875 -0.375 0.0
-1.0 -0.375 0.0
-0.875 -0.25 0.0
-1.0 -0.25 0.0
-0.875 -0.125 0.0
-1.0 -0.125 0.0
-0.875 0.0 0.0
-1.0 0.0 0.0
-0.875 0.125 0.0
-1.0 0.125 0.0
-0.875 0.25 0.0
-1.0 0.25 0.0
-0.875 0.375 0.0
-1.0 0.375 0.0
-0.875 0.5 0.0
-1.0 0.5 0.0
-0.875 0.625 0.0
-1.0 0.625 0.0
-0.875 0.75 0.0
-1.0 0.75 0.0
-0.875 0.875 0.0
-1.0 0.875 0.0
-0.875 1.0 0.0
-1.0 1.0 0.0
-0.75 -0.875 0.0
-0.75 -1.0 0.0
-0.75 -0.75 0.0
-0.75 -0.625 0.0
-0.75 -0.5 0.0
-0.75 -0.375 0.0
-0.75 -0.25 0.0
-0.75 -0.125 0.0
-0.75 0.0 0.0
-0.75 0.125 0.0
-0.75 0.25 0.0
-0.75 0.375 0.0
-0.75 0.5 0.0
-0.75 0.625 0.0
-0.75 0.75 0.0
-0.75 0.875 0.0
-0.75 1.0 0.0
-0.625 -0.875 0.0
-0.625 -1.0 0.0
-0.625 -0.75 0.0
-0.625 -0.625 0.0
-0.625 -0.5 0.0
-0.625 -0.375 0.0
-0.625 -0.25 0.0
-0.625 -0.125 0.0
-0.625 0.0 0.0
-0.625 0.125 0.0
-0.625 0.25 0.0
-0.625 0.375 0.0
-0.625 0.5 0.0
-0.625 0.625 0.0
-0.625 0.75 0.0
-0.625 0.875 0.0
-0.625 1.0 0.0
-0.5 -0.875 0.0
-0.5 -1.0 0.0
-0.5 -0.75 0.0
-0.5 -0.625 0.0
-0.5 -0.5 0.0
-0.5 -0.375 0.0
-0.5 -0.25 0.0
-0.5 -0.125 0.0
-0.5 0.0 0.0
-0.5 0.125 0.0
-0.5 0.25 0.0
-0.5 0.375 0.0
-0.5 0.5 0.0
-0.5 0.625 0.0
-0.5 0.75 0.0
-0.5 0.875 0.0
-0.5 1.0 0.0
-0.375 -0.875 0.0
-0.375 -1.0 0.0
-0.375 -0.75 0.0
-0.375 -0.625 0.0
-0.375 -0.5 0.0
-0.375 -0.375 0.0
-0.375 -0.25 0.0
-0.375 -0.125 0.0
-0.375 0.0 0.0
-0.375 0.125 0.0
-0.375 0.25 0.0
-0.375 0.375 0.0
-0.375 0.5 0.0
-0.375 0.625 0.0
-0.375 0.75 0.0
-0.375 0.875 0.0
-0.375 1.0 0.0
-0.25 -0.875 0.0
-0.25 -1.0 0.0
-0.25 -0.75 0.0
-0.25 -0.625 0.0
-0.25 -0.5 0.0
-0.25 -0.375 0.0
-0.25 -0.25 0.0
-0.25 -0.125 0.0
-0.25 0.0 0.0
-0.25 0.125 0.0
-0.25 0.25 0.0
-0.25 0.375 0.0
-0.25 0.5 0.0
-0.25 0.625 0.0
-0.25 0.75 0.0
-0.25 0.875 0.0
-0.25 1.0 0.0
-0.125 -0.875 0.0
-0.125 -1.0 0.0
-0.125 -0.75 0.0
-0.125 -0.625 0.0
-0.125 -0.5 0.0
-0.125 -0.375 0.0
-0.125 -0.25 0.0
-0.125 -0.125 0.0
-0.125 0.0 0.0
-0.125 0.125 0.0
-0.125 0.25 0.0
-0.125 0.375 0.0
-0.125 0.5 0.0
-0.125 0.625 0.0
-0.125 0.75 0.0
-0.125 0.875 0.0
-0.125 1.0 0.0
1.51394048813e-17 -0.875 0.0
0.0 -1.0 0.0
1.51394048813e-17 -0.75 0.0
1.51394048813e-17 -0.625 0.0
1.51394048813e-17 -0.5 0.0
1.51394048813e-17 -0.375 0.0
1.51394048813e-17 -0.25 0.0
1.51394048813e-17 -0.125 0.0
-1.26161707344e-17 0.0 0.0
1.51394048813e-17 0.125 0.0
1.51394048813e-17 0.25 0.0
1.51394048813e-17 0.375 0.0
1.51394048813e-17 0.5 0.0
1.51394048813e-17 0.625 0.0
1.51394048813e-17 0.75 0.0
1.51394048813e-17 0.875 0.0
0.0 1.0 0.0
0.125 -0.875 0.0
0.125 -1.0 0.0
0.125 -0.75 0.0
0.125 -0.625 0.0
0.125 -0.5 0.0
0.125 -0.375 0.0
0.125 -0.25 0.0
0.125 -0.125 0.0
0.125 0.0 0.0
0.125 0.125 0.0
0.125 0.25 0.0
0.125 0.375 0.0
0.125 0.5 0.0
0.125 0.625 0.0
0.125 0.75 0.0
0.125 0.875 0.0
0.125 1.0 0.0
0.25 -0.875 0.0
0.25 -1.0 0.0
0.25 -0.75 0.0
0.25 -0.625 0.0
0.25 -0.5 0.0
0.25 -0.375 0.0
0.25 -0.25 0.0
0.25 -0.125 0.0
0.25 0.0 0.0
0.25 0.125 0.0
0.25 0.25 0.0
0.25 0.375 0.0
0.25 0.5 0.0
0.25 0.625 0.0
0.25 0.75 0.0
0.25 0.875 0.0
0.25 1.0 0.0
0.375 -0.875 0.0
0.375 -1.0 0.0
0.375 -0.75 0.0
0.375 -0.625 0.0
0.375 -0.5 0.0
0.375 -0.375 0.0
0.375 -0.25 0.0
0.375 -0.125 0.0
0.375 0.0 0.0
0.375 0.125 0.0
0.375 0.25 0.0
0.375 0.375 0.0
0.375 0.5 0.0
0.375 0.625 0.0
0.375 0.75 0.0
0.375 0.875 0.0
0.375 1.0 0.0
0.5 -0.875 0.0
0.5 -1.0 0.0
0.5 -0.75 0.0
0.5 -0.625 0.0
0.5 -0.5 0.0
0.5 -0.375 0.0
0.5 -0.25 0.0
0.5 -0.125 0.0
0.5 0.0 0.0
0.5 0.125 0.0
0.5 0.25 0.0
0.5 0.375 0.0
0.5 0.5 0.0
0.5 0.625 0.0
0.5 0.75 0.0
0.5 0.875 0.0
0.5 1.0 0.0
0.625 -0.875 0.0
0.625 -1.0 0.0
0.625 -0.75 0.0
0.625 -0.625 0.0
0.625 -0.5 0.0
0.625 -0.375 0.0
0.625 -0.25 0.0
0.625 -0.125 0.0
0.625 0.0 0.0
0.625 0.125 0.0
0.625 0.25 0.0
0.625 0.375 0.0
0.625 0.5 0.0
0.625 0.625 0.0
0.625 0.75 0.0
0.625 0.875 0.0
0.625 1.0 0.0
0.75 -0.875 0.0
0.75 -1.0 0.0
0.75 -0.75 0.0
0.75 -0.625 0.0
0.75 -0.5 0.0
0.75 -0.375 0.0
0.75 -0.25 0.0
0.75 -0.125 0.0
0.75 0.0 0.0
0.75 0.125 0.0
0.75 0.25 0.0
0.75 0.375 0.0
0.75 0.5 0.0
0.75 0.625 0.0
0.75 0.75 0.0
0.75 0.875 0.0
0.75 1.0 0.0
0.875 -0.875 0.0
0.875 -1.0 0.0
0.875 -0.75 0.0
0.875 -0.625 0.0
0.875 -0.5 0.0
0.875 -0.375 0.0
0.875 -0.25 0.0
0.875 -0.125 0.0
0.875 0.0 0.0
0.875 0.125 0.0
0.875 0.25 0.0
0.875 0.375 0.0
0.875 0.5 0.0
0.875 0.625 0.0
0.875 0.75 0.0
0.875 0.875 0.0
0.875 1.0 0.0
1.0 -0.875 0.0
1.0 -1.0 0.0
1.0 -0.75 0.0
1.0 -0.625 0.0
1.0 -0.5 0.0
1.0 -0.375 0.0
1.0 -0.25 0.0
1.0 -0.125 0.0
1.0 0.0 0.0
1.0 0.125 0.0
1.0 0.25 0.0
1.0 0.375 0.0
1.0 0.5 0.0
1.0 0.625 0.0
1.0 0.75 0.0
1.0 0.875 0.0
1.0 1.0 0.0

POINT_DATA 289
SCALARS Radiance double
LOOKUP_TABLE default
-0.0746051553227
0.0
0.0
0.0
0.0119485103019
0.0
-0.0176547319652
0.0
0.0398237735337
0.0
-0.0326902274223
0.0
0.263444228768
1.0
0.242026962745
1.0
0.361993814925
1.0
0.327217088022
1.0
0.382136455889
1.0
0.215665559743
0.0
0.258430967021
0.0
0.221310129765
0.0
0.154195196239
0.0
0.100219495082
0.0
0.0882835569013
0.0
-0.0418440808073
0.0
0.065898737775
-0.0826051232783
0.143731823403
0.0831337233781
0.199816960355
0.200527867935
0.555782017683
0.424487002567
0.603434718101
0.565820869789
0.475881000196
0.219679963453
0.103670336113
0.0752628734239
0.0745870464708
-0.0286674013039
0.0
0.0190878551358
-0.087855265273
0.196360583846
0.162127362679
0.133377860511
0.098108423131
0.276912384757
0.152843775014
0.265529907495
0.301482872735
0.253796026241
0.117554397035
0.218549148663
0.22402601568
0.192330347124
-0.0739069184989
0.0
0.0857346068596
0.0421039569872
0.225846212768
0.133321573855
0.156893024359
0.0324754659581
0.214189099264
0.142723350674
0.286556580227
0.375542723475
0.43056890389
0.368327008223
0.355055578011
0.198096215244
0.149740618538
-0.0365583589746
0.0
0.167100934743
0.108856551744
0.155552431404
0.113979113406
0.153770497338
0.0323728822633
0.0898538909314
0.0656217422229
0.183165935131
0.154341926392
0.241990978641
0.238310710385
0.23310654014
0.161067346533
0.209386296877
0.00901073255556
0.0
0.177260015679
0.147480156597
0.146626617228
0.0465439958609
0.198437952471
0.0394230163664
-0.0113354697446
0.0416513676402
0.165467233832
0.11419296915
0.259073084079
0.351491405023
0.392516303289
0.263725628706
0.299752459627
0.0727504752377
0.0
0.143157729261
0.17592041076
0.115965186527
-0.0144821664148
0.141282297502
0.0492997719124
0.0340567398304
0.0372973463982
0.0786409827899
0.0479186313148
0.211570687999
0.265103208716
0.258108718419
0.211955361576
0.375479993432
0.192338621456
0.0
0.103798516885
0.061106182193
0.134103529088
0.029813224448
0.0573984663799
0.0535094537109
0.0974444326888
0.0351566210062
0.0337442671509
0.0551209818206
0.186527866601
0.131637247013
0.270915865202
0.441449891807
0.679323379331
0.265890275914
0.0
0.0047853496384
-0.011586671331
0.114475614631
0.0546971900449
0.0172113447357
0.0336144375776
0.0993434571804
0.0414183521651
0.0481205709246
0.0648392561984
0.089747406986
0.0504254081379
0.351729286529
0.617861373373
0.911226441573
0.249702651362
0.0
-0.0364569808354
0.0485834376429
0.0564691525732
0.0666692022425
0.0423864835567
0.0616287486951
0.121297907271
0.0519127436217
0.0502023209489
0.0195137951161
0.0763814417032
0.141818879825
0.486365809414
0.807034859898
1.17422701211
0.200022938239
0.0
-0.0534955447549
0.110569364259
-0.026761551432
0.089682198883
0.0543979198255
0.0400190901292
0.0513521663559
0.0180177668264
0.0685646599581
0.0371669689337
0.135314461829
0.303032897058
0.661261244773
0.991324129956
1.43226267118
0.137680208032
0.0
-0.0532961867449
0.218310750522
-0.0839667871365
0.0925296957926
0.0962648663015
0.0598718859878
0.0184394687472
0.0375579482469
0.139050361706
0.101759632651
0.266823027832
0.568658031027
0.898556291546
1.19712873977
1.70137192372
0.0866594263714
0.0
-0.0347737351061
0.284474490267
-0.112236552056
0.0903566191551
0.0251394123455
0.0539912614659
0.0230723866048
0.0310281408344
0.121367939513
0.209503998459
0.526861245981
0.845518954868
1.09438214791
1.41698816893
2.01899168711
0.118029961065
0.0
-0.0234987045852
0.214835795024
-0.0549353959993
0.175985232684
-0.0804182983898
0.0413180657143
0.0736790093466
0.0936847078044
0.245974259181
0.501973544433
0.816405836539
1.04296335568
1.3299522492
1.77904221703
2.46342184386
0.179651468909
0.0
-0.0369380873866
0.119674380202
-0.0374377574794
0.181203152541
-0.126781666252
0.0724639955871
0.0721549372752
0.217495580791
0.41401943897
0.698395782021
0.969551417675
1.22695354184
1.70669016089
2.25901335354
2.96523529581
0.189566824185
0.0
-0.0428297856774
0.0983208594232
-0.0433667311271
0.166395224771
-0.0830428023174
0.17168308921
0.137904841163
0.40206250126
0.599580139219
0.91050958011
1.21812597866
1.5821878316
2.18286021664
2.78602318929
3.51226881562
