# vtk DataFile Version 2.0
Packing Fraction Fields
ASCII
DATASET UNSTRUCTURED_GRID
POINTS 9 double
1.0 1.0 0.0
0.0 1.0 0.0
0.0 0.0 0.0
1.0 0.0 0.0
-1.0 1.0 0.0
-1.0 0.0 0.0
0.0 -1.0 0.0
1.0 -1.0 0.0
-1.0 -1.0 0.0

POINT_DATA 9
SCALARS Radiance double
LOOKUP_TABLE default
-0.03616584144924107
0.14538583954240272
0.17501243908600997
0.1781924141413696
0.0
1.0
0.0
0.0
0.0
