# vtk DataFile Version 2.0
Packing Fraction Fields
ASCII
DATASET UNSTRUCTURED_GRID
POINTS 4225 double
0.4375 0.875 0.0
0.46875 0.875 0.0
0.46875 0.90625 0.0
0.4375 0.90625 0.0
0.4375 0.9375 0.0
0.46875 0.9375 0.0
0.5 0.9375 0.0
0.5 0.90625 0.0
0.5 0.875 0.0
0.375 0.9375 0.0
0.375 0.90625 0.0
0.40625 0.90625 0.0
0.40625 0.9375 0.0
0.40625 0.875 0.0
0.375 0.875 0.0
0.4375 1.0 0.0
0.40625 1.0 0.0
0.40625 0.96875 0.0
0.4375 0.96875 0.0
0.375 0.96875 0.0
0.375 1.0 0.0
0.5 0.96875 0.0
0.46875 0.96875 0.0
0.46875 1.0 0.0
0.5 1.0 0.0
0.4375 0.75 0.0
0.46875 0.75 0.0
0.46875 0.78125 0.0
0.4375 0.78125 0.0
0.4375 0.8125 0.0
0.46875 0.8125 0.0
0.5 0.8125 0.0
0.5 0.78125 0.0
0.5 0.75 0.0
0.375 0.8125 0.0
0.375 0.78125 0.0
0.40625 0.78125 0.0
0.40625 0.8125 0.0
0.40625 0.75 0.0
0.375 0.75 0.0
0.40625 0.84375 0.0
0.4375 0.84375 0.0
0.375 0.84375 0.0
0.5 0.84375 0.0
0.46875 0.84375 0.0
0.4375 0.625 0.0
0.46875 0.625 0.0
0.46875 0.65625 0.0
0.4375 0.65625 0.0
0.4375 0.6875 0.0
0.46875 0.6875 0.0
0.5 0.6875 0.0
0.5 0.65625 0.0
0.5 0.625 0.0
0.375 0.6875 0.0
0.375 0.65625 0.0
0.40625 0.65625 0.0
0.40625 0.6875 0.0
0.40625 0.625 0.0
0.375 0.625 0.0
0.40625 0.71875 0.0
0.4375 0.71875 0.0
0.375 0.71875 0.0
0.5 0.71875 0.0
0.46875 0.71875 0.0
0.4375 0.5 0.0
0.46875 0.5 0.0
0.46875 0.53125 0.0
0.4375 0.53125 0.0
0.4375 0.5625 0.0
0.46875 0.5625 0.0
0.5 0.5625 0.0
0.5 0.53125 0.0
0.5 0.5 0.0
0.375 0.5625 0.0
0.375 0.53125 0.0
0.40625 0.53125 0.0
0.40625 0.5625 0.0
0.40625 0.5 0.0
0.375 0.5 0.0
0.40625 0.59375 0.0
0.4375 0.59375 0.0
0.375 0.59375 0.0
0.5 0.59375 0.0
0.46875 0.59375 0.0
0.4375 0.375 0.0
0.46875 0.375 0.0
0.46875 0.40625 0.0
0.4375 0.40625 0.0
0.4375 0.4375 0.0
0.46875 0.4375 0.0
0.5 0.4375 0.0
0.5 0.40625 0.0
0.5 0.375 0.0
0.375 0.4375 0.0
0.375 0.40625 0.0
0.40625 0.40625 0.0
0.40625 0.4375 0.0
0.40625 0.375 0.0
0.375 0.375 0.0
0.40625 0.46875 0.0
0.4375 0.46875 0.0
0.375 0.46875 0.0
0.5 0.46875 0.0
0.46875 0.46875 0.0
0.4375 0.25 0.0
0.46875 0.25 0.0
0.46875 0.28125 0.0
0.4375 0.28125 0.0
0.4375 0.3125 0.0
0.46875 0.3125 0.0
0.5 0.3125 0.0
0.5 0.28125 0.0
0.5 0.25 0.0
0.375 0.3125 0.0
0.375 0.28125 0.0
0.40625 0.28125 0.0
0.40625 0.3125 0.0
0.40625 0.25 0.0
0.375 0.25 0.0
0.40625 0.34375 0.0
0.4375 0.34375 0.0
0.375 0.34375 0.0
0.5 0.34375 0.0
0.46875 0.34375 0.0
0.4375 0.125 0.0
0.46875 0.125 0.0
0.46875 0.15625 0.0
0.4375 0.15625 0.0
0.4375 0.1875 0.0
0.46875 0.1875 0.0
0.5 0.1875 0.0
0.5 0.15625 0.0
0.5 0.125 0.0
0.375 0.1875 0.0
0.375 0.15625 0.0
0.40625 0.15625 0.0
0.40625 0.1875 0.0
0.40625 0.125 0.0
0.375 0.125 0.0
0.40625 0.21875 0.0
0.4375 0.21875 0.0
0.375 0.21875 0.0
0.5 0.21875 0.0
0.46875 0.21875 0.0
0.4375 0.0 0.0
0.46875 0.0 0.0
0.46875 0.03125 0.0
0.4375 0.03125 0.0
0.4375 0.0625 0.0
0.46875 0.0625 0.0
0.5 0.0625 0.0
0.5 0.03125 0.0
0.5 0.0 0.0
0.375 0.0625 0.0
0.375 0.03125 0.0
0.40625 0.03125 0.0
0.40625 0.0625 0.0
0.40625 0.0 0.0
0.375 0.0 0.0
0.40625 0.09375 0.0
0.4375 0.09375 0.0
0.375 0.09375 0.0
0.5 0.09375 0.0
0.46875 0.09375 0.0
0.4375 -0.125 0.0
0.46875 -0.125 0.0
0.46875 -0.09375 0.0
0.4375 -0.09375 0.0
0.4375 -0.0625 0.0
0.46875 -0.0625 0.0
0.5 -0.0625 0.0
0.5 -0.09375 0.0
0.5 -0.125 0.0
0.375 -0.0625 0.0
0.375 -0.09375 0.0
0.40625 -0.09375 0.0
0.40625 -0.0625 0.0
0.40625 -0.125 0.0
0.375 -0.125 0.0
0.40625 -0.03125 0.0
0.4375 -0.03125 0.0
0.375 -0.03125 0.0
0.5 -0.03125 0.0
0.46875 -0.03125 0.0
0.4375 -0.25 0.0
0.46875 -0.25 0.0
0.46875 -0.21875 0.0
0.4375 -0.21875 0.0
0.4375 -0.1875 0.0
0.46875 -0.1875 0.0
0.5 -0.1875 0.0
0.5 -0.21875 0.0
0.5 -0.25 0.0
0.375 -0.1875 0.0
0.375 -0.21875 0.0
0.40625 -0.21875 0.0
0.40625 -0.1875 0.0
0.40625 -0.25 0.0
0.375 -0.25 0.0
0.40625 -0.15625 0.0
0.4375 -0.15625 0.0
0.375 -0.15625 0.0
0.5 -0.15625 0.0
0.46875 -0.15625 0.0
0.4375 -0.375 0.0
0.46875 -0.375 0.0
0.46875 -0.34375 0.0
0.4375 -0.34375 0.0
0.4375 -0.3125 0.0
0.46875 -0.3125 0.0
0.5 -0.3125 0.0
0.5 -0.34375 0.0
0.5 -0.375 0.0
0.375 -0.3125 0.0
0.375 -0.34375 0.0
0.40625 -0.34375 0.0
0.40625 -0.3125 0.0
0.40625 -0.375 0.0
0.375 -0.375 0.0
0.40625 -0.28125 0.0
0.4375 -0.28125 0.0
0.375 -0.28125 0.0
0.5 -0.28125 0.0
0.46875 -0.28125 0.0
0.4375 -0.5 0.0
0.46875 -0.5 0.0
0.46875 -0.46875 0.0
0.4375 -0.46875 0.0
0.4375 -0.4375 0.0
0.46875 -0.4375 0.0
0.5 -0.4375 0.0
0.5 -0.46875 0.0
0.5 -0.5 0.0
0.375 -0.4375 0.0
0.375 -0.46875 0.0
0.40625 -0.46875 0.0
0.40625 -0.4375 0.0
0.40625 -0.5 0.0
0.375 -0.5 0.0
0.40625 -0.40625 0.0
0.4375 -0.40625 0.0
0.375 -0.40625 0.0
0.5 -0.40625 0.0
0.46875 -0.40625 0.0
0.4375 -0.625 0.0
0.46875 -0.625 0.0
0.46875 -0.59375 0.0
0.4375 -0.59375 0.0
0.4375 -0.5625 0.0
0.46875 -0.5625 0.0
0.5 -0.5625 0.0
0.5 -0.59375 0.0
0.5 -0.625 0.0
0.375 -0.5625 0.0
0.375 -0.59375 0.0
0.40625 -0.59375 0.0
0.40625 -0.5625 0.0
0.40625 -0.625 0.0
0.375 -0.625 0.0
0.40625 -0.53125 0.0
0.4375 -0.53125 0.0
0.375 -0.53125 0.0
0.5 -0.53125 0.0
0.46875 -0.53125 0.0
0.4375 -0.75 0.0
0.46875 -0.75 0.0
0.46875 -0.71875 0.0
0.4375 -0.71875 0.0
0.4375 -0.6875 0.0
0.46875 -0.6875 0.0
0.5 -0.6875 0.0
0.5 -0.71875 0.0
0.5 -0.75 0.0
0.375 -0.6875 0.0
0.375 -0.71875 0.0
0.40625 -0.71875 0.0
0.40625 -0.6875 0.0
0.40625 -0.75 0.0
0.375 -0.75 0.0
0.40625 -0.65625 0.0
0.4375 -0.65625 0.0
0.375 -0.65625 0.0
0.5 -0.65625 0.0
0.46875 -0.65625 0.0
0.4375 -0.875 0.0
0.46875 -0.875 0.0
0.46875 -0.84375 0.0
0.4375 -0.84375 0.0
0.4375 -0.8125 0.0
0.46875 -0.8125 0.0
0.5 -0.8125 0.0
0.5 -0.84375 0.0
0.5 -0.875 0.0
0.375 -0.8125 0.0
0.375 -0.84375 0.0
0.40625 -0.84375 0.0
0.40625 -0.8125 0.0
0.40625 -0.875 0.0
0.375 -0.875 0.0
0.40625 -0.78125 0.0
0.4375 -0.78125 0.0
0.375 -0.78125 0.0
0.5 -0.78125 0.0
0.46875 -0.78125 0.0
0.4375 -1.0 0.0
0.46875 -1.0 0.0
0.46875 -0.96875 0.0
0.4375 -0.96875 0.0
0.4375 -0.9375 0.0
0.46875 -0.9375 0.0
0.5 -0.9375 0.0
0.5 -0.96875 0.0
0.5 -1.0 0.0
0.375 -0.9375 0.0
0.375 -0.96875 0.0
0.40625 -0.96875 0.0
0.40625 -0.9375 0.0
0.40625 -1.0 0.0
0.375 -1.0 0.0
0.40625 -0.90625 0.0
0.4375 -0.90625 0.0
0.375 -0.90625 0.0
0.5 -0.90625 0.0
0.46875 -0.90625 0.0
0.3125 0.875 0.0
0.34375 0.875 0.0
0.34375 0.90625 0.0
0.3125 0.90625 0.0
0.3125 0.9375 0.0
0.34375 0.9375 0.0
0.25 0.9375 0.0
0.25 0.90625 0.0
0.28125 0.90625 0.0
0.28125 0.9375 0.0
0.28125 0.875 0.0
0.25 0.875 0.0
0.3125 1.0 0.0
0.28125 1.0 0.0
0.28125 0.96875 0.0
0.3125 0.96875 0.0
0.25 0.96875 0.0
0.25 1.0 0.0
0.34375 0.96875 0.0
0.34375 1.0 0.0
0.3125 0.75 0.0
0.34375 0.75 0.0
0.34375 0.78125 0.0
0.3125 0.78125 0.0
0.3125 0.8125 0.0
0.34375 0.8125 0.0
0.25 0.8125 0.0
0.25 0.78125 0.0
0.28125 0.78125 0.0
0.28125 0.8125 0.0
0.28125 0.75 0.0
0.25 0.75 0.0
0.28125 0.84375 0.0
0.3125 0.84375 0.0
0.25 0.84375 0.0
0.34375 0.84375 0.0
0.3125 0.625 0.0
0.34375 0.625 0.0
0.34375 0.65625 0.0
0.3125 0.65625 0.0
0.3125 0.6875 0.0
0.34375 0.6875 0.0
0.25 0.6875 0.0
0.25 0.65625 0.0
0.28125 0.65625 0.0
0.28125 0.6875 0.0
0.28125 0.625 0.0
0.25 0.625 0.0
0.28125 0.71875 0.0
0.3125 0.71875 0.0
0.25 0.71875 0.0
0.34375 0.71875 0.0
0.3125 0.5 0.0
0.34375 0.5 0.0
0.34375 0.53125 0.0
0.3125 0.53125 0.0
0.3125 0.5625 0.0
0.34375 0.5625 0.0
0.25 0.5625 0.0
0.25 0.53125 0.0
0.28125 0.53125 0.0
0.28125 0.5625 0.0
0.28125 0.5 0.0
0.25 0.5 0.0
0.28125 0.59375 0.0
0.3125 0.59375 0.0
0.25 0.59375 0.0
0.34375 0.59375 0.0
0.3125 0.375 0.0
0.34375 0.375 0.0
0.34375 0.40625 0.0
0.3125 0.40625 0.0
0.3125 0.4375 0.0
0.34375 0.4375 0.0
0.25 0.4375 0.0
0.25 0.40625 0.0
0.28125 0.40625 0.0
0.28125 0.4375 0.0
0.28125 0.375 0.0
0.25 0.375 0.0
0.28125 0.46875 0.0
0.3125 0.46875 0.0
0.25 0.46875 0.0
0.34375 0.46875 0.0
0.3125 0.25 0.0
0.34375 0.25 0.0
0.34375 0.28125 0.0
0.3125 0.28125 0.0
0.3125 0.3125 0.0
0.34375 0.3125 0.0
0.25 0.3125 0.0
0.25 0.28125 0.0
0.28125 0.28125 0.0
0.28125 0.3125 0.0
0.28125 0.25 0.0
0.25 0.25 0.0
0.28125 0.34375 0.0
0.3125 0.34375 0.0
0.25 0.34375 0.0
0.34375 0.34375 0.0
0.3125 0.125 0.0
0.34375 0.125 0.0
0.34375 0.15625 0.0
0.3125 0.15625 0.0
0.3125 0.1875 0.0
0.34375 0.1875 0.0
0.25 0.1875 0.0
0.25 0.15625 0.0
0.28125 0.15625 0.0
0.28125 0.1875 0.0
0.28125 0.125 0.0
0.25 0.125 0.0
0.28125 0.21875 0.0
0.3125 0.21875 0.0
0.25 0.21875 0.0
0.34375 0.21875 0.0
0.3125 0.0 0.0
0.34375 0.0 0.0
0.34375 0.03125 0.0
0.3125 0.03125 0.0
0.3125 0.0625 0.0
0.34375 0.0625 0.0
0.25 0.0625 0.0
0.25 0.03125 0.0
0.28125 0.03125 0.0
0.28125 0.0625 0.0
0.28125 0.0 0.0
0.25 0.0 0.0
0.28125 0.09375 0.0
0.3125 0.09375 0.0
0.25 0.09375 0.0
0.34375 0.09375 0.0
0.3125 -0.125 0.0
0.34375 -0.125 0.0
0.34375 -0.09375 0.0
0.3125 -0.09375 0.0
0.3125 -0.0625 0.0
0.34375 -0.0625 0.0
0.25 -0.0625 0.0
0.25 -0.09375 0.0
0.28125 -0.09375 0.0
0.28125 -0.0625 0.0
0.28125 -0.125 0.0
0.25 -0.125 0.0
0.28125 -0.03125 0.0
0.3125 -0.03125 0.0
0.25 -0.03125 0.0
0.34375 -0.03125 0.0
0.3125 -0.25 0.0
0.34375 -0.25 0.0
0.34375 -0.21875 0.0
0.3125 -0.21875 0.0
0.3125 -0.1875 0.0
0.34375 -0.1875 0.0
0.25 -0.1875 0.0
0.25 -0.21875 0.0
0.28125 -0.21875 0.0
0.28125 -0.1875 0.0
0.28125 -0.25 0.0
0.25 -0.25 0.0
0.28125 -0.15625 0.0
0.3125 -0.15625 0.0
0.25 -0.15625 0.0
0.34375 -0.15625 0.0
0.3125 -0.375 0.0
0.34375 -0.375 0.0
0.34375 -0.34375 0.0
0.3125 -0.34375 0.0
0.3125 -0.3125 0.0
0.34375 -0.3125 0.0
0.25 -0.3125 0.0
0.25 -0.34375 0.0
0.28125 -0.34375 0.0
0.28125 -0.3125 0.0
0.28125 -0.375 0.0
0.25 -0.375 0.0
0.28125 -0.28125 0.0
0.3125 -0.28125 0.0
0.25 -0.28125 0.0
0.34375 -0.28125 0.0
0.3125 -0.5 0.0
0.34375 -0.5 0.0
0.34375 -0.46875 0.0
0.3125 -0.46875 0.0
0.3125 -0.4375 0.0
0.34375 -0.4375 0.0
0.25 -0.4375 0.0
0.25 -0.46875 0.0
0.28125 -0.46875 0.0
0.28125 -0.4375 0.0
0.28125 -0.5 0.0
0.25 -0.5 0.0
0.28125 -0.40625 0.0
0.3125 -0.40625 0.0
0.25 -0.40625 0.0
0.34375 -0.40625 0.0
0.3125 -0.625 0.0
0.34375 -0.625 0.0
0.34375 -0.59375 0.0
0.3125 -0.59375 0.0
0.3125 -0.5625 0.0
0.34375 -0.5625 0.0
0.25 -0.5625 0.0
0.25 -0.59375 0.0
0.28125 -0.59375 0.0
0.28125 -0.5625 0.0
0.28125 -0.625 0.0
0.25 -0.625 0.0
0.28125 -0.53125 0.0
0.3125 -0.53125 0.0
0.25 -0.53125 0.0
0.34375 -0.53125 0.0
0.3125 -0.75 0.0
0.34375 -0.75 0.0
0.34375 -0.71875 0.0
0.3125 -0.71875 0.0
0.3125 -0.6875 0.0
[...]
POINT_DATA 4225
SCALARS Radiance double
LOOKUP_TABLE default
0.646292372169
0.713502196805
0.646578018784
0.569220901958
0.48608916948
0.569778146008
0.646946083732
0.713534236363
0.766917956141
0.315598142562
0.399222948212
0.485385218077
0.400015636697
0.568697020546
0.484662520656
0.316907088183
0.237589821717
0.316305097124
0.400742881185
0.237094599634
0.166425095261
0.570371229842
0.486777128314
0.401407205097
0.487451826031
0.826975450476
0.827626489609
0.825694624723
0.806220911296
0.767800478779
0.805286846863
0.824585664857
0.826280432671
0.809750704241
0.645961465176
0.714136970207
0.768469874541
0.713804233867
0.807324869448
0.769291898005
0.646087381696
0.713592460582
0.568204109277
0.804521660997
0.767283238364
0.729583070772
0.666553140476
0.728366585642
0.77893917213
0.812769605135
0.777459335566
0.727218059001
0.665767117972
0.594838257628
0.830059103462
0.832638740149
0.8144882255
0.830803787058
0.780526620326
0.816348745246
0.828429687897
0.829133682972
0.808599999235
0.77608552044
0.811191019071
0.436665784667
0.357855894399
0.437413568615
0.517397682738
0.595478483394
0.517623440954
0.438090221404
0.358958892689
0.283338647508
0.732225012895
0.669082111469
0.595783191238
0.668209888763
0.517127064569
0.596077593258
0.730868797548
0.667367130501
0.78222330574
0.517805169026
0.59516353503
0.148516946614
0.0974659374664
0.150208634233
0.210404798899
0.280408603873
0.212089509213
0.151802715842
0.0989300393443
0.0555903681006
0.434949448737
0.353993915246
0.278788757915
0.355376061061
0.208613854031
0.277061665713
0.435845067726
0.35666247772
0.51681058306
0.213670698334
0.281924257274
-0.00441333438205
-0.0206065113657
-0.00384103196546
0.019867611041
0.0530851956883
0.0208124502801
-0.00329326118969
-0.0204001867604
-0.0308302034945
0.144832854531
0.0925624476379
0.0517332815655
0.0942829862208
0.0188786598024
0.050315714615
0.14672569261
0.0959172006399
0.206713864741
0.0217117279182
0.0543710186456
-0.0359664723575
-0.0345931729294
-0.0364712149585
-0.0352438578825
-0.0306380694665
-0.035586676431
-0.0369510663838
-0.0351551439887
-0.0315558872214
-0.00562277597415
-0.0212501606172
-0.0305260665245
-0.0210339676835
-0.0348800035611
-0.0304003888645
-0.00500801200796
-0.0208185737768
0.0178471528273
-0.0359101661835
-0.0307387088564
-0.0211077091854
-0.0169160398261
-0.02160937546
-0.0258713152466
-0.0303711112536
-0.0264416617452
-0.0220921511493
-0.0173159727013
-0.0129552933681
-0.0348781821149
-0.032746500037
-0.0297408118767
-0.0333891939159
-0.025278993314
-0.0290855399876
-0.0354358053719
-0.0340046427483
-0.0344933619469
-0.0269894758301
-0.0309762002588
-0.00574033942783
-0.00349267938553
-0.00589991265627
-0.00871319507176
-0.0123198231887
-0.00894967545283
-0.0060533491322
-0.00358430294957
-0.00172537121684
-0.0200506560961
-0.0156283869299
-0.0119852319891
-0.0160714932227
-0.00846857120557
-0.01164028397
-0.0205878826092
-0.016500964585
-0.0246652958646
-0.00917749263018
-0.0126433964268
0.000433227578281
0.000947547899565
0.000450742230626
-0.000388024621481
-0.00163676548928
-0.000396300567975
0.000468338143548
0.000980663925321
0.00122016222748
-0.0054042627267
-0.00319437303542
-0.00158900367369
-0.00329747784851
-0.000378724702019
-0.00153911137605
-0.00557500097611
-0.00339699134164
-0.00821631947206
-0.000403496328148
-0.00168226580963
0.00109484033551
0.000984654750243
0.00113872597968
0.00117576492473
0.00113651728752
0.0012209748485
0.00118117278358
0.00102305568174
0.000831724120083
0.000398425330231
0.000844502043729
0.00109308835745
0.000879438810831
0.00112925444788
0.00104865054414
0.000415790390546
0.000913796450764
-0.000368456999399
0.00126482707791
0.00117889128224
0.000416140964766
0.00029063864651
0.000437246625925
0.000582587560374
0.000764848486234
0.000610191958888
0.000457525427812
0.000305082780004
0.000183981667435
0.00100298975339
0.000861355247266
0.000729595993462
0.000903747104878
0.000553982051077
0.000693204377404
0.00104957537093
0.000944866046619
0.00108149902737
0.000636748881204
0.000798908787873
2.84683496813e-05
-5.51546609982e-06
3.05037948995e-05
8.35684865206e-05
0.000164869252178
8.89717662326e-05
3.24314345946e-05
-5.90484141237e-06
-2.62576576816e-05
0.000371606181097
0.000243785047895
0.000154723967757
0.0002599578677
7.79420355358e-05
0.0001442188001
0.000394247528155
0.000275586506456
0.000524422414205
9.41347729716e-05
0.000174629841958
-2.72932411305e-05
-2.54219300053e-05
-3.03396705997e-05
-2.83986518352e-05
-2.24406036509e-05
-3.11698149977e-05
-3.32904592133e-05
-2.82478836057e-05
-2.14454952948e-05
2.41179355985e-05
-4.39638947641e-06
-2.04553543721e-05
-4.76691443797e-06
-2.55454388047e-05
-1.84171848552e-05
2.63359568814e-05
-5.13799749258e-06
7.21101296768e-05
-3.38568740535e-05
-2.43743036161e-05
-6.10917796052e-06
-3.83846006045e-06
-7.56365569948e-06
-1.07225566981e-05
-1.6462933664e-05
-1.27319498845e-05
-8.97844374866e-06
-4.75270510175e-06
-2.00925122365e-06
-2.09306031355e-05
-1.64177471505e-05
-1.38614124468e-05
-1.95012633257e-05
-8.66006318977e-06
-1.1194540454e-05
-2.41554497677e-05
-2.25045372042e-05
-2.26121752883e-05
-1.46823941051e-05
-1.89929700387e-05
0.0
0.0
5.43961768909e-08
-1.66949621747e-07
-1.01588449873e-06
-3.36561752469e-07
1.02961248736e-07
1.73360273781e-07
0.0
-3.10207317603e-06
-9.78133376528e-07
-5.09136398825e-07
-1.94686475202e-06
0.0
0.0
-4.62021395009e-06
-2.90175819978e-06
-6.55043235202e-06
-5.06722468019e-07
-1.51698666505e-06
0.313861418129
0.39836214807
0.314784305406
0.235699230919
0.16556293404
0.236464726375
0.0558134177507
0.104477092582
0.164908676792
0.104971696953
0.234796831329
0.164105563827
0.0560417174167
0.0182002801578
0.0559925685009
0.105320784081
0.0182871418985
-0.00861202590761
0.166068468107
0.10552300953
0.645941433752
0.714590378934
0.645913221538
0.567302003462
0.483149668271
0.567739852334
0.311678458854
0.395341798817
0.482353752504
0.396424696707
0.566888379843
0.481527536378
0.312827044692
0.397430403822
0.233755921322
0.483918285831
0.833851673995
0.8346406428
0.831865690519
0.811670266878
0.771397167478
0.810047852545
0.646223310674
0.716675814307
0.772682852122
0.71585939696
0.813469377401
0.774126076126
0.646045073894
0.715164435912
0.566496857063
0.770267308742
0.735153698005
0.669984399421
0.73365292416
0.785951005157
0.82050339788
0.784030878835
0.838371905032
0.841671382617
0.822801682472
0.839154482889
0.787985355807
0.825250143484
0.836019513546
0.836811753675
0.815447629442
0.818353122486
0.432924802854
0.352513148846
0.433976793495
0.516035240173
0.596634556981
0.516447076777
0.738378302453
0.672876472895
0.596896380605
0.671881164213
0.515573636796
0.597146460689
0.736728461103
0.67091726887
0.790135597762
0.596361488258
0.14073398987
0.0907547364431
0.142836344176
0.202574885663
0.273272755089
0.20470190048
0.430572784671
0.347447431148
0.271203977895
0.349243280111
0.200329574412
0.269013980059
0.431791011397
0.35093069227
0.515060712508
0.275224124176
-0.00690262485143
-0.0214644813975
-0.00625518509361
0.0156633596987
0.0472857472542
0.0167747743823
0.136202568166
0.084800124665
0.0456746467301
0.0868744116807
0.0145149200586
0.0440005330518
0.138523523594
0.0888590052083
0.197962523753
0.0488330042122
-0.0336780073825
-0.032076278432
-0.0342925820673
-0.0336445216248
-0.0300982860971
-0.0340821423513
-0.00823113621472
-0.0220671512983
-0.0299167547643
-0.0218760518789
-0.0331786525224
-0.0297113357876
-0.00756228508727
-0.021674107412
0.0133316705298
-0.0302586300212
-0.0189271981707
-0.0151724201705
-0.019496820701
-0.023376413277
-0.0277013092726
-0.024030869909
-0.0323581341539
-0.0298985187119
-0.0269731295282
-0.0306524084716
-0.0227026777643
-0.0262215512863
-0.0330334956303
-0.0313783014434
-0.0326826740806
-0.0284055876611
-0.00504800810149
-0.00308790518551
-0.00522848233092
-0.00769096023849
-0.0109219606073
-0.00795694903905
-0.0177440270688
-0.0137352512298
-0.010549897457
-0.0142250558513
-0.00741884218373
-0.0101700955504
-0.0183426402328
-0.0147043785016
-0.0220104715356
-0.0112856405471
0.000363882314642
0.000809010979221
0.000381125486641
-0.000345242369928
-0.00143344505585
-0.000357277581478
-0.00467431633657
-0.00275050302649
-0.00137791801152
-0.00286575966938
-0.000332407185012
-0.00132075425922
-0.00486317758912
-0.00297829594003
-0.00714107043824
-0.00148721679948
0.000906086688784
0.000817747538299
0.000955141249237
0.000982467822846
0.00095692179864
0.00103255268624
0.000329523117956
0.000699425437178
0.00090971215799
0.00073645371503
0.000931295188393
0.000861656163084
0.000346685551395
0.000772988146952
-0.000318827851866
0.00100324777417
0.000324242903401
0.000227101141918
0.000348257533115
0.000462631540111
0.00061721723929
0.000493956210201
0.000804581922261
0.000680195398711
0.000577728941044
0.000727111330963
0.000430497012738
0.000537315912032
0.000855881944622
0.000772980749041
0.000879083880168
0.000655726951782
1.9472455357e-05
-4.02030779952e-06
2.18260438946e-05
5.99037391439e-05
0.000122231596259
6.60910746764e-05
0.000274384327547
0.000174324840059
0.000110802629822
0.000192336144076
5.3567527069e-05
9.91198594044e-05
0.000299604287787
0.000209939989637
0.00039760171546
0.000133379273598
-1.42371545313e-05
-1.32597117057e-05
-1.76230430662e-05
-1.65132902181e-05
-1.41758574173e-05
-1.96008173977e-05
1.46308106279e-05
-2.79369470314e-06
-1.19692637158e-05
-3.22570018577e-06
-1.33515007061e-05
-9.70291376594e-06
1.70697344422e-05
-3.63228736879e-06
4.7102349331e-05
-1.63245721023e-05
0.0
0.0
-1.56016628608e-06
-2.21416506218e-06
-5.68981951546e-06
-4.39973865103e-06
-7.24819783037e-06
-3.39706336379e-06
-2.8647778647e-06
-6.74341896611e-06
0.0
0.0
-1.07773739451e-05
-1.00329680108e-05
-1.0117351234e-05
-8.46855956879e-06
0.0550741119412
0.103838052819
0.0555065561405
0.0181581257303
-0.00829197159365
0.01827214375
-0.0340039879965
-0.0249518828387
-0.00823000738688
-0.025155445673
0.0179478871043
-0.00822948327648
-0.0345991153219
-0.0373182354081
-0.0343018276798
-0.0253881357162
-0.0370219050038
-0.035654729372
-0.00841834604443
-0.0256524264932
0.309026149031
0.394178248578
0.310412620431
0.231250430128
0.162050647588
0.232574555104
0.0538403123465
0.101061445553
0.160796975877
0.102129751844
0.229780867416
0.159390701424
0.0545180734742
0.103055408707
0.0176442138239
0.163153144605
0.646801297866
0.717614556589
0.64647551983
0.565771886998
0.479771658014
0.566125365315
0.305875905009
0.390164983901
0.478835400783
0.391594013772
0.5654344559
0.477855614523
0.307515294723
0.39293032408
0.228162789032
0.48066791401
0.843642303451
0.844365134537
0.84091178009
0.819952968628
0.777493802871
0.817607791471
0.647673161045
0.72117870622
0.779423615247
0.719864221924
0.822486616845
0.781521645882
0.647200479715
0.718676832939
0.565111158195
0.775728909493
0.741907413167
0.67390354306
0.740104277334
0.794790340688
0.830606440621
0.79240338366
0.84968908324
0.853535885169
0.833518724059
0.850294466299
0.797298058302
0.836590025408
0.846566867483
0.847238533464
0.82521255754
0.827850987535
0.427871615148
0.345539425301
0.429267314929
0.513874180281
0.597609135178
0.514494809302
0.745749190368
0.6771786938
0.597820552285
0.676054295926
0.513197006235
0.59801793644
0.743788717722
0.67496270479
0.799928074534
0.597384241429
0.131219058821
0.0826353321883
0.133768624465
0.192848270406
0.26425371022
0.195470064669
0.424796629535
0.339101080026
0.261674333588
0.341370701488
0.190092921471
0.258955434724
0.426382510912
0.343515276653
0.512461414243
0.266698684091
-0.00958304185694
-0.0222440533655
-0.00890590385985
0.0108708103069
0.0404673783683
0.0121160608903
0.125761781822
0.0755903521075
0.0386108815411
0.0780311496739
0.00959894635141
0.036696535321
0.128551090805
0.0803792526315
0.187199466764
0.0422643888916
-0.0309115589315
-0.0291166445233
-0.0316510761969
-0.0315929561556
-0.0292175619345
-0.032154724387
-0.0109287120119
-0.0226529940569
-0.0289233527464
-0.0225408460311
-0.0309955555426
-0.0285935675006
-0.0102587036191
-0.0224032057207
0.00830384895012
-0.0294792335238
-0.0165082823754
-0.0132357648678
-0.0171322648684
-0.0205741691337
-0.0246506453972
-0.021300660597
-0.0293326369102
-0.0266049296659
-0.0238327775344
-0.0274695416668
-0.0198319784946
-0.022994441162
-0.0301389234741
-0.0283069053023
-0.0303607646532
-0.0254471629796
-0.00428573780005
-0.00263272469386
-0.00448173684668
-0.00657038721509
-0.00938978827681
-0.00685810479277
-0.0152274559044
-0.0116871395799
-0.00899049615712
-0.0122109269078
-0.00627834004245
-0.008585884737
-0.0158730263507
-0.012727393796
-0.0190751245976
-0.00978318704903
0.000295243210355
0.00066191861223
0.000312381013531
-0.000289661053454
-0.00120197530459
-0.000304560358464
-0.00388460394333
-0.00226612711481
-0.00114058230567
-0.00239035772171
-0.000274186870483
-0.00107799769445
-0.00408660355337
-0.00251261533095
-0.00598236448902
-0.00126206921118
0.000698910851951
0.000632288721041
0.000752240562141
0.000771733423997
0.000763143210198
0.000825881349568
0.000260905696162
0.000546642623131
0.000712749791326
0.000585518110211
0.000716684341372
0.000661637174841
0.000278091556874
0.000623946059182
-0.000258195564725
0.000812788893061
0.000222373991188
0.00015594196337
0.000248626280041
0.000329727403026
0.000453931742565
0.000363995188571
0.000589493705952
0.000483176728884
0.000411068936874
0.000533724472415
0.000294848741482
0.000367498057114
0.000644644848198
0.000583446719248
0.000660776795814
0.00049603214216
9.69773404054e-06
-2.32921936597e-06
1.21689513925e-05
3.38670972272e-05
7.51057790967e-05
4.05285942527e-05
0.00016856486345
9.89318876812e-05
6.28322777308e-05
0.000118208108803
2.71391094389e-05
5.04205261863e-05
0.000195671869755
0.000137224020471
0.000259409982541
8.72113627485e-05
0.0
0.0
-3.65419182378e-06
-3.4396446497e-06
-4.98305132908e-06
-6.81275376601e-06
4.78290630185e-06
-6.67984166263e-07
-2.52546061514e-06
-1.2738019374e-06
0.0
0.0
7.23101638603e-06
-1.82504727159e-06
2.03662656869e-05
-7.37484934907e-06
-0.0333996560597
-0.0247748134243
-0.0337038974845
-0.0363512246154
-0.0350748919988
-0.0366998224341
-0.0251443639743
-0.0304487715531
-0.0347216818179
-0.0307719964733
-0.0359751513148
-0.0343262911889
-0.0255367146614
-0.0194942429309
-0.0253657382478
-0.0310459572546
-0.0193762072656
-0.013850298049
-0.0353859508017
-0.0312698401687
0.0521266714406
0.0998506361458
0.0530426076218
0.0167678131413
-0.0084003535149
0.0172499070343
-0.0327701069842
-0.0243735193328
-0.00856520875687
-0.0244887322201
0.0162008559752
-0.00877837035235
-0.0330891612836
-0.0246214291558
-0.035570456013
-0.00828732993885
0.302192666544
0.38863854198
0.304103387374
0.224466619974
0.156112931108
0.226392692261
0.0499467873151
0.0953616484089
0.154236850105
0.0970010789848
0.2223801266
0.152198973733
0.0510941766771
0.0984972645861
0.0155520716328
0.157830057748
0.64884088217
0.722622714142
0.648219726098
0.564499590703
0.475750411515
0.564800135552
0.297933598628
0.383421526867
0.474616933796
0.385272604294
0.564207795928
0.47342374982
0.300138135448
0.387009595425
0.22012823903
0.476828589704
0.856541921519
0.856965773339
0.853012767072
0.831258521307
0.786237987976
0.828134992859
0.650311676573
0.727763964457
0.788865462643
0.725911550925
0.834588153526
0.791679590211
0.649537702114
0.724199169421
0.56392310501
0.783791671262
0.749911692521
0.67833635448
0.747789837367
0.805560804679
0.843218044639
0.80268186073
0.864233415232
0.868415566522
0.846778613233
0.864402776401
0.808566192219
0.850505787033
0.860280708867
0.860587102096
0.838129327844
0.839822463271
0.421319961268
0.336701410263
0.423110385539
0.510807344457
0.598368809171
0.51166549862
0.754403476301
0.68201576657
0.598521775848
0.680753986907
0.509885053839
0.598659799825
0.752115844945
0.679527861554
0.811699187613
0.598200806905
0.119806537937
0.0730562798369
0.122848025094
0.180978113285
0.253076263302
0.184162980336
0.417409976569
0.328665092135
0.249903208449
0.331489658215
0.17763904046
0.24656489456
0.419421281026
0.334166251938
0.508896774627
0.256091441838
-0.012233218622
-0.0227354465466
-0.0115885280102
0.00565953821595
0.0327024273626
0.0069892998574
0.113326341827
0.0648907622953
0.0306277085686
0.0677066591572
0.00431932269366
0.0285053761836
0.116633857521
0.070428477703
0.174139401716
0.0347262820707
-0.0276177541986
-0.0257135946294
-0.0284923162615
-0.0289724246499
-0.0278148706345
-0.0296869081879
-0.0134553307129
-0.0227592666103
-0.0273597122318
-0.0227933349528
-0.0282159024707
-0.0268565511227
-0.0128574248362
-0.0227837760416
0.00297400055683
-0.0282251143558
-0.0139092279969
-0.0111567879631
-0.0145725356893
-0.017521815176
-0.0212604189952
-0.0183046935352
-0.0257661181745
-0.0228870048612
-0.0203670253221
-0.0238536795114
-0.0167276546002
-0.0194577403707
-0.0267089461422
-0.024796224145
-0.0274161212938
-0.0221366237084
-0.00347301644931
-0.00214009174043
-0.00367999441102
-0.00538012129537
-0.0077628665516
-0.00568283953975
-0.0125612333899
-0.00953349730578
-0.00734546598315
-0.010079285048
-0.00507454282057
-0.00692475429344
-0.0132384838657
-0.0106206030973
-0.0159234012715
-0.00817650192096
0.000226338559618
0.000507325013682
0.000243663005279
-0.000224898103417
-0.000949674822556
-0.00024174594721
-0.0030528562928
-0.00175274886673
-0.000884144234472
-0.00188324864732
-0.000207713584363
-0.000817838338431
-0.00326389836027
-0.00201241347876
-0.00476641452829
-0.00101432710867
0.000476736347083
0.000431857923423
0.000533507715794
0.000546549713947
0.000557358189477
0.000604051993039
0.000191333173455
0.000386738178251
0.000504238814678
0.000427373206538
0.000488308385021
0.00045049440578
0.000208905124403
0.000467568306988
-0.00019025556117
0.000609831821832
0.00011331855068
7.94335497705e-05
0.000141098436788
0.000187057193576
0.000278449951764
0.000223462288077
0.000361031543172
0.000273815284177
0.000233081956181
0.000327123437305
0.000150246601399
0.000187224367598
0.000419228296771
0.000379822199645
0.000429365154289
0.000323273544057
0.0
0.0
2.36773013723e-06
6.77426822873e-06
2.53032409778e-05
1.35705513141e-05
5.70046150268e-05
1.99951789066e-05
1.26592429537e-05
3.99257938199e-05
0.0
0.0
8.52716437108e-05
5.97517931357e-05
0.000113082776858
3.79006581429e-05
0.0656703752742
0.111376296918
0.16531536116
0.111209981285
0.165588023133
0.226981441389
0.294232599435
0.226548696053
0.164956750322
0.293466716915
0.226082263519
0.293860773337
0.36593710729
0.366050687194
0.440997273494
0.589814056946
0.516469280163
0.440767398485
0.516003155794
0.36608584561
0.440423002255
0.29522409437
0.365998023174
0.294634669839
0.227377873253
-0.0325461956953
-0.0195115157524
0.000719373722489
-0.0193652648264
0.000627533682634
0.0288342176991
0.0654495853363
0.0287832586288
0.000758609088398
0.064903192703
0.028663864682
0.0652156197035
0.110181272754
0.110607331682
0.164019587051
0.225571319426
0.16452370005
0.110951665197
0.0656021273905
0.0288149808616
-0.0372877221849
-0.0408259544125
-0.0417822713533
-0.0406445622384
-0.0419780321315
-0.0394270528786
-0.0321994402139
-0.0392294503755
-0.0415728660315
-0.0319104345813
-0.0390304784513
-0.0320481922118
-0.0191238693487
-0.0191726447112
0.000684967521941
0.0284780687268
0.0007466203504
-0.019252689894
-0.0323651480128
-0.039623849838
-0.0158571487958
-0.0211109732907
-0.0266418879073
-0.0210414501715
-0.0267404190988
-0.0322019923464
-0.0369445395776
-0.0320438050145
-0.0265152755707
-0.0364917977706
-0.0318568041684
-0.0367317232448
-0.039964921218
-0.0402140029596
-0.0411121222498
-0.0388294921327
-0.0413495845268
-0.0404405542436
-0.0371299766156
-0.0323308999704
-0.00198281328118
-0.00430313594378
-0.0073678328748
-0.00430803502948
-0.0073744334349
-0.0112128925767
-0.0157486846259
-0.0111740980067
-0.0073497566338
-0.0155593749203
-0.0111196541094
-0.0156639056608
-0.0206853673624
-0.0208281257246
-0.0261799254543
-0.0316414331739
-0.0263611128957
-0.0209469952355
-0.0158132478958
-0.0112356937099
0.00168465122444
0.00139239475655
0.000738815455022
0.00137507620546
0.000756517015933
-0.000347491358304